<?xml version="1.0" encoding="UTF-8"?>

<!-- generated on 2023-01-20 11:53:07 by Eclipse SUMO sumo Version 1.14.1
<configuration xmlns:xsi="http://www.w3.org/2001/XMLSchema-instance" xsi:noNamespaceSchemaLocation="http://sumo.dlr.de/xsd/sumoConfiguration.xsd">

    <input>
        <net-file value="./strategia2_config/../san_francisco.net.xml"/>
        <route-files value="./strategia2_config/../san_francisco.rou.xml"/>
        <additional-files value="./strategia2_config/../san_francisco.poly.xml,./strategia2_config/../parking_capacity_75%25/off_parking_75%25.add.xml,./strategia2_config/../parking_capacity_75%25/on_parking_75%25.add.xml"/>
    </input>

    <output>
        <emission-output value="./strategia2_config/../output/strategia2/75%25/emissions.xml"/>
        <tripinfo-output value="./strategia2_config/../output/strategia2/75%25/tripinfo.xml"/>
        <vehroute-output value="./strategia2_config/../output/strategia2/75%25/vehroute.xml"/>
        <stop-output value="./strategia2_config/../output/strategia2/75%25/stops.xml"/>
        <collision-output value="./strategia2_config/../output/strategia2/75%25/collision.xml"/>
        <statistic-output value="./strategia2_config/../output/strategia2/75%25/statistic.xml"/>
    </output>

    <time>
        <step-length value="1"/>
    </time>

    <processing>
        <ignore-route-errors value="false"/>
    </processing>

    <report>
        <verbose value="true"/>
        <xml-validation value="never"/>
    </report>

    <traci_server>
        <remote-port value="55586"/>
    </traci_server>

    <gui_only>
        <gui-settings-file value="./strategia2_config/../gui-settings.cfg"/>
        <start value="true"/>
    </gui_only>

</configuration>
-->

<tripinfos xmlns:xsi="http://www.w3.org/2001/XMLSchema-instance" xsi:noNamespaceSchemaLocation="http://sumo.dlr.de/xsd/tripinfo_file.xsd">
    <tripinfo id="76" depart="18120.00" departLane="225806031#0_0" departPos="5.10" departSpeed="0.00" departDelay="0.00" arrival="19566.00" arrivalLane="225806031#0_0" arrivalPos="142.16" arrivalSpeed="10.32" duration="1446.00" routeLength="3181.76" waitingTime="172.00" waitingCount="6" stopTime="946.00" timeLoss="225.72" rerouteNo="1" devices="vehroute_76 tripinfo_76 emissions_76" vType="vecType" speedFactor="1.03" vaporized="">
        <emissions CO_abs="41745.369702" CO2_abs="1320605.288843" HC_abs="220.611885" PMx_abs="24.641584" NOx_abs="549.038392" fuel_abs="421224.510663" electricity_abs="0"/>
    </tripinfo>
    <tripinfo id="77" depart="18120.00" departLane="90077241_0" departPos="5.10" departSpeed="0.00" departDelay="0.00" arrival="19921.00" arrivalLane="90077241_0" arrivalPos="3225.35" arrivalSpeed="27.31" duration="1801.00" routeLength="11810.95" waitingTime="46.00" waitingCount="3" stopTime="1190.00" timeLoss="101.29" rerouteNo="1" devices="vehroute_77 tripinfo_77 emissions_77" vType="vecType" speedFactor="0.98" vaporized="">
        <emissions CO_abs="43050.589390" CO2_abs="2729463.675983" HC_abs="262.577516" PMx_abs="56.002215" NOx_abs="1040.997667" fuel_abs="870574.846503" electricity_abs="0"/>
    </tripinfo>
    <tripinfo id="85" depart="18126.00" departLane="90077241_0" departPos="5.10" departSpeed="0.00" departDelay="6.00" arrival="19965.00" arrivalLane="90077241_0" arrivalPos="3225.35" arrivalSpeed="27.19" duration="1839.00" routeLength="11984.76" waitingTime="121.00" waitingCount="6" stopTime="1124.00" timeLoss="185.93" rerouteNo="1" devices="vehroute_85 tripinfo_85 emissions_85" vType="vecType" speedFactor="0.98" vaporized="">
        <emissions CO_abs="55946.789868" CO2_abs="2957864.248882" HC_abs="325.949954" PMx_abs="60.879958" NOx_abs="1140.510953" fuel_abs="943428.982575" electricity_abs="0"/>
    </tripinfo>
    <tripinfo id="24" depart="18003.00" departLane="123867455_0" departPos="5.10" departSpeed="0.00" departDelay="3.00" arrival="20029.00" arrivalLane="123867455_0" arrivalPos="904.85" arrivalSpeed="23.79" duration="2026.00" routeLength="6219.34" waitingTime="234.00" waitingCount="9" stopTime="1165.00" timeLoss="344.14" rerouteNo="2" devices="vehroute_24 tripinfo_24 emissions_24" vType="vecType" speedFactor="0.83" vaporized="">
        <emissions CO_abs="70846.014105" CO2_abs="2324938.287060" HC_abs="376.321539" PMx_abs="44.576155" NOx_abs="956.384292" fuel_abs="741567.833076" electricity_abs="0"/>
    </tripinfo>
    <tripinfo id="71" depart="18120.00" departLane="52432938#0_0" departPos="5.10" departSpeed="0.00" departDelay="0.00" arrival="20060.00" arrivalLane="52432938#0_1" arrivalPos="69.49" arrivalSpeed="10.26" duration="1940.00" routeLength="10860.48" waitingTime="225.00" waitingCount="7" stopTime="1046.00" timeLoss="309.33" rerouteNo="2" devices="vehroute_71 tripinfo_71 emissions_71" vType="vecType" speedFactor="0.97" vaporized="">
        <emissions CO_abs="72062.036491" CO2_abs="3077503.127198" HC_abs="401.316339" PMx_abs="61.566542" NOx_abs="1221.235848" fuel_abs="981595.838253" electricity_abs="0"/>
    </tripinfo>
    <tripinfo id="191" depart="18663.00" departLane="8915254_0" departPos="5.10" departSpeed="0.00" departDelay="3.00" arrival="20299.00" arrivalLane="8915254_0" arrivalPos="317.12" arrivalSpeed="22.83" duration="1636.00" routeLength="6701.39" waitingTime="153.00" waitingCount="6" stopTime="901.00" timeLoss="251.03" rerouteNo="1" devices="vehroute_191 tripinfo_191 emissions_191" vType="vecType" speedFactor="1.06" vaporized="">
        <emissions CO_abs="51180.106361" CO2_abs="2199403.113525" HC_abs="284.311233" PMx_abs="40.498568" NOx_abs="895.770620" fuel_abs="701518.737135" electricity_abs="0"/>
    </tripinfo>
    <tripinfo id="95" depart="18180.00" departLane="123867455_0" departPos="5.10" departSpeed="0.00" departDelay="0.00" arrival="20323.00" arrivalLane="123867455_0" arrivalPos="904.85" arrivalSpeed="29.61" duration="2143.00" routeLength="8308.19" waitingTime="409.00" waitingCount="14" stopTime="1053.00" timeLoss="533.37" rerouteNo="1" devices="vehroute_95 tripinfo_95 emissions_95" vType="vecType" speedFactor="1.06" vaporized="">
        <emissions CO_abs="103548.324502" CO2_abs="3373849.530522" HC_abs="551.010759" PMx_abs="68.282594" NOx_abs="1403.339450" fuel_abs="1076128.472809" electricity_abs="0"/>
    </tripinfo>
    <tripinfo id="105" depart="18183.00" departLane="8915254_0" departPos="5.10" departSpeed="0.00" departDelay="3.00" arrival="20360.00" arrivalLane="8915254_0" arrivalPos="317.12" arrivalSpeed="23.33" duration="2177.00" routeLength="5890.78" waitingTime="304.00" waitingCount="11" stopTime="1349.00" timeLoss="415.55" rerouteNo="1" devices="vehroute_105 tripinfo_105 emissions_105" vType="vecType" speedFactor="1.07" vaporized="">
        <emissions CO_abs="76584.132486" CO2_abs="2488280.355190" HC_abs="406.767136" PMx_abs="49.532726" NOx_abs="1041.399708" fuel_abs="793665.972827" electricity_abs="0"/>
    </tripinfo>
    <tripinfo id="59" depart="18063.00" departLane="-27029200#2_0" departPos="5.10" departSpeed="0.00" departDelay="3.00" arrival="20382.00" arrivalLane="-27029200#2_0" arrivalPos="66.62" arrivalSpeed="10.17" duration="2319.00" routeLength="7133.74" waitingTime="144.00" waitingCount="7" stopTime="1486.00" timeLoss="231.19" rerouteNo="2" devices="vehroute_59 tripinfo_59 emissions_59" vType="vecType" speedFactor="0.97" vaporized="">
        <emissions CO_abs="48633.154862" CO2_abs="2110028.417402" HC_abs="269.671197" PMx_abs="35.331459" NOx_abs="842.865036" fuel_abs="673014.999569" electricity_abs="0"/>
    </tripinfo>
    <tripinfo id="50" depart="18060.00" departLane="254396707#6_0" departPos="5.10" departSpeed="0.00" departDelay="0.00" arrival="20431.00" arrivalLane="254396707#6_0" arrivalPos="139.12" arrivalSpeed="9.00" duration="2371.00" routeLength="4531.25" waitingTime="355.00" waitingCount="14" stopTime="1440.00" timeLoss="458.75" rerouteNo="1" devices="vehroute_50 tripinfo_50 emissions_50" vType="vecType" speedFactor="0.85" vaporized="">
        <emissions CO_abs="84195.562363" CO2_abs="2192360.096212" HC_abs="434.016327" PMx_abs="42.524361" NOx_abs="927.599725" fuel_abs="699289.386871" electricity_abs="0"/>
    </tripinfo>
    <tripinfo id="150" depart="18480.00" departLane="144489137#0_0" departPos="5.10" departSpeed="0.00" departDelay="0.00" arrival="20499.00" arrivalLane="144489137#0_0" arrivalPos="135.49" arrivalSpeed="10.86" duration="2019.00" routeLength="6188.13" waitingTime="303.00" waitingCount="12" stopTime="1075.00" timeLoss="409.62" rerouteNo="2" devices="vehroute_150 tripinfo_150 emissions_150" vType="vecType" speedFactor="1.03" vaporized="">
        <emissions CO_abs="73671.083977" CO2_abs="2353363.215494" HC_abs="389.551796" PMx_abs="42.688224" NOx_abs="969.212736" fuel_abs="750637.333175" electricity_abs="0"/>
    </tripinfo>
    <tripinfo id="21" depart="18000.00" departLane="27167762_0" departPos="5.10" departSpeed="0.00" departDelay="0.00" arrival="20602.00" arrivalLane="27167762_0" arrivalPos="139.02" arrivalSpeed="21.46" duration="2602.00" routeLength="5201.43" waitingTime="158.00" waitingCount="6" stopTime="2024.00" timeLoss="231.07" rerouteNo="1" devices="vehroute_21 tripinfo_21 emissions_21" vType="vecType" speedFactor="1.01" vaporized="">
        <emissions CO_abs="47853.355731" CO2_abs="1865251.659557" HC_abs="261.761399" PMx_abs="36.178593" NOx_abs="765.875480" fuel_abs="594939.419597" electricity_abs="0"/>
    </tripinfo>
    <tripinfo id="107" depart="18180.00" departLane="-206662304#13_0" departPos="5.10" departSpeed="0.00" departDelay="0.00" arrival="20739.00" arrivalLane="-206662304#13_0" arrivalPos="290.52" arrivalSpeed="10.28" duration="2559.00" routeLength="14526.52" waitingTime="328.00" waitingCount="13" stopTime="1204.00" timeLoss="462.19" rerouteNo="1" devices="vehroute_107 tripinfo_107 emissions_107" vType="vecType" speedFactor="1.03" vaporized="">
        <emissions CO_abs="103237.180634" CO2_abs="4230871.752565" HC_abs="570.466861" PMx_abs="81.949590" NOx_abs="1681.790572" fuel_abs="1349477.031893" electricity_abs="0"/>
    </tripinfo>
    <tripinfo id="210" depart="18960.00" departLane="-160313263#1_0" departPos="5.10" departSpeed="0.00" departDelay="0.00" arrival="20797.00" arrivalLane="-160313263#1_1" arrivalPos="124.42" arrivalSpeed="9.94" duration="1837.00" routeLength="5241.74" waitingTime="312.00" waitingCount="12" stopTime="930.00" timeLoss="400.37" rerouteNo="2" devices="vehroute_210 tripinfo_210 emissions_210" vType="vecType" speedFactor="0.93" vaporized="">
        <emissions CO_abs="73708.682924" CO2_abs="2117992.195371" HC_abs="384.421851" PMx_abs="39.005694" NOx_abs="880.342409" fuel_abs="675566.218743" electricity_abs="0"/>
    </tripinfo>
    <tripinfo id="41" depart="18003.00" departLane="144489137#0_0" departPos="5.10" departSpeed="0.00" departDelay="3.00" arrival="20864.00" arrivalLane="144489137#0_0" arrivalPos="135.49" arrivalSpeed="10.26" duration="2861.00" routeLength="5119.82" waitingTime="367.00" waitingCount="15" stopTime="1905.00" timeLoss="480.25" rerouteNo="1" devices="vehroute_41 tripinfo_41 emissions_41" vType="vecType" speedFactor="0.96" vaporized="">
        <emissions CO_abs="85495.399886" CO2_abs="2345950.238414" HC_abs="443.607770" PMx_abs="45.170931" NOx_abs="987.319381" fuel_abs="748277.211049" electricity_abs="0"/>
    </tripinfo>
    <tripinfo id="161" depart="18540.00" departLane="-27029204_0" departPos="5.10" departSpeed="0.00" departDelay="0.00" arrival="20929.00" arrivalLane="-27029204_0" arrivalPos="195.60" arrivalSpeed="11.05" duration="2389.00" routeLength="6746.96" waitingTime="283.00" waitingCount="12" stopTime="1451.00" timeLoss="423.95" rerouteNo="1" devices="vehroute_161 tripinfo_161 emissions_161" vType="vecType" speedFactor="1.07" vaporized="">
        <emissions CO_abs="77514.281470" CO2_abs="2648743.909629" HC_abs="414.279470" PMx_abs="50.668351" NOx_abs="1099.546529" fuel_abs="844847.127920" electricity_abs="0"/>
    </tripinfo>
    <tripinfo id="182" depart="18600.00" departLane="8916767#0_0" departPos="5.10" departSpeed="0.00" departDelay="0.00" arrival="20937.00" arrivalLane="8916767#0_0" arrivalPos="129.66" arrivalSpeed="8.04" duration="2337.00" routeLength="7504.42" waitingTime="377.00" waitingCount="15" stopTime="1020.00" timeLoss="510.42" rerouteNo="2" devices="vehroute_182 tripinfo_182 emissions_182" vType="vecType" speedFactor="0.83" vaporized="">
        <emissions CO_abs="100527.845880" CO2_abs="2981848.371366" HC_abs="526.276399" PMx_abs="53.877903" NOx_abs="1237.315505" fuel_abs="951105.195263" electricity_abs="0"/>
    </tripinfo>
    <tripinfo id="124" depart="18240.00" departLane="254396707#6_0" departPos="5.10" departSpeed="0.00" departDelay="0.00" arrival="20954.00" arrivalLane="254396707#6_0" arrivalPos="139.12" arrivalSpeed="10.90" duration="2714.00" routeLength="6387.85" waitingTime="715.00" waitingCount="23" stopTime="1304.00" timeLoss="872.11" rerouteNo="2" devices="vehroute_124 tripinfo_124 emissions_124" vType="vecType" speedFactor="1.06" vaporized="">
        <emissions CO_abs="149610.220899" CO2_abs="3721636.465669" HC_abs="767.670703" PMx_abs="76.586960" NOx_abs="1594.835903" fuel_abs="1187077.220948" electricity_abs="0"/>
    </tripinfo>
    <tripinfo id="25" depart="18003.00" departLane="-23883761_0" departPos="5.10" departSpeed="0.00" departDelay="3.00" arrival="21027.00" arrivalLane="-23883761_0" arrivalPos="197.88" arrivalSpeed="8.57" duration="3024.00" routeLength="7067.07" waitingTime="428.00" waitingCount="20" stopTime="1726.00" timeLoss="573.29" rerouteNo="2" devices="vehroute_25 tripinfo_25 emissions_25" vType="vecType" speedFactor="0.87" vaporized="">
        <emissions CO_abs="107143.865456" CO2_abs="3001395.139384" HC_abs="557.043762" PMx_abs="56.033521" NOx_abs="1255.300515" fuel_abs="957341.805823" electricity_abs="0"/>
    </tripinfo>
    <tripinfo id="288" depart="19623.00" departLane="90077241_0" departPos="5.10" departSpeed="0.00" departDelay="3.00" arrival="21073.00" arrivalLane="90077241_0" arrivalPos="3225.35" arrivalSpeed="37.61" duration="1450.00" routeLength="11600.11" waitingTime="87.00" waitingCount="4" stopTime="959.00" timeLoss="141.33" rerouteNo="1" devices="vehroute_288 tripinfo_288 emissions_288" vType="vecType" speedFactor="1.32" vaporized="">
        <emissions CO_abs="84678.683718" CO2_abs="3439339.545650" HC_abs="473.545741" PMx_abs="88.505961" NOx_abs="1379.621671" fuel_abs="1096995.873089" electricity_abs="0"/>
    </tripinfo>
    <tripinfo id="164" depart="18540.00" departLane="8916767#0_0" departPos="5.10" departSpeed="0.00" departDelay="0.00" arrival="21081.00" arrivalLane="8916767#0_0" arrivalPos="129.66" arrivalSpeed="11.15" duration="2541.00" routeLength="7034.83" waitingTime="301.00" waitingCount="10" stopTime="1505.00" timeLoss="424.59" rerouteNo="2" devices="vehroute_164 tripinfo_164 emissions_164" vType="vecType" speedFactor="1.03" vaporized="">
        <emissions CO_abs="78343.900309" CO2_abs="2631323.315620" HC_abs="417.505183" PMx_abs="47.660743" NOx_abs="1084.623469" fuel_abs="839293.927179" electricity_abs="0"/>
    </tripinfo>
    <tripinfo id="246" depart="19440.00" departLane="31129765_0" departPos="5.10" departSpeed="0.00" departDelay="0.00" arrival="21166.00" arrivalLane="31129765_0" arrivalPos="639.51" arrivalSpeed="25.96" duration="1726.00" routeLength="6946.37" waitingTime="216.00" waitingCount="9" stopTime="1042.00" timeLoss="316.58" rerouteNo="1" devices="vehroute_246 tripinfo_246 emissions_246" vType="vecType" speedFactor="1.19" vaporized="">
        <emissions CO_abs="67686.511218" CO2_abs="2574907.229140" HC_abs="368.957964" PMx_abs="54.283969" NOx_abs="1061.796240" fuel_abs="821288.476960" electricity_abs="0"/>
    </tripinfo>
    <tripinfo id="51" depart="18063.00" departLane="8915254_0" departPos="5.10" departSpeed="0.00" departDelay="3.00" arrival="21249.00" arrivalLane="8915254_0" arrivalPos="317.12" arrivalSpeed="24.86" duration="3186.00" routeLength="7519.90" waitingTime="237.00" waitingCount="11" stopTime="2296.00" timeLoss="386.13" rerouteNo="1" devices="vehroute_51 tripinfo_51 emissions_51" vType="vecType" speedFactor="1.17" vaporized="">
        <emissions CO_abs="71900.988694" CO2_abs="2783426.588445" HC_abs="391.540215" PMx_abs="53.621188" NOx_abs="1150.572292" fuel_abs="887799.694313" electricity_abs="0"/>
    </tripinfo>
    <tripinfo id="3" depart="18000.00" departLane="-133781749_0" departPos="5.10" departSpeed="0.00" departDelay="0.00" arrival="21298.00" arrivalLane="-133781749_0" arrivalPos="138.68" arrivalSpeed="11.71" duration="3298.00" routeLength="7501.04" waitingTime="258.00" waitingCount="13" stopTime="2345.00" timeLoss="384.50" rerouteNo="1" devices="vehroute_3 tripinfo_3 emissions_3" vType="vecType" speedFactor="1.08" vaporized="">
        <emissions CO_abs="72095.179891" CO2_abs="2677790.306711" HC_abs="390.031325" PMx_abs="49.523825" NOx_abs="1099.018393" fuel_abs="854109.914748" electricity_abs="0"/>
    </tripinfo>
    <tripinfo id="203" depart="18960.00" departLane="254396707#6_0" departPos="5.10" departSpeed="0.00" departDelay="0.00" arrival="21399.00" arrivalLane="254396707#6_0" arrivalPos="139.12" arrivalSpeed="11.50" duration="2439.00" routeLength="6166.25" waitingTime="661.00" waitingCount="24" stopTime="1138.00" timeLoss="816.43" rerouteNo="1" devices="vehroute_203 tripinfo_203 emissions_203" vType="vecType" speedFactor="1.13" vaporized="">
        <emissions CO_abs="139735.679305" CO2_abs="3578753.310472" HC_abs="718.776806" PMx_abs="74.315065" NOx_abs="1535.806645" fuel_abs="1141498.936958" electricity_abs="0"/>
    </tripinfo>
    <tripinfo id="255" depart="19449.00" departLane="90077241_0" departPos="5.10" departSpeed="0.00" departDelay="9.00" arrival="21426.00" arrivalLane="90077241_0" arrivalPos="3225.35" arrivalSpeed="31.52" duration="1977.00" routeLength="12199.04" waitingTime="141.00" waitingCount="7" stopTime="1300.00" timeLoss="217.05" rerouteNo="2" devices="vehroute_255 tripinfo_255 emissions_255" vType="vecType" speedFactor="1.12" vaporized="">
        <emissions CO_abs="74794.827786" CO2_abs="3373758.753299" HC_abs="424.447778" PMx_abs="76.875469" NOx_abs="1332.401553" fuel_abs="1076081.186802" electricity_abs="0"/>
    </tripinfo>
    <tripinfo id="146" depart="18480.00" departLane="90077241_0" departPos="5.10" departSpeed="0.00" departDelay="0.00" arrival="21428.00" arrivalLane="90077241_0" arrivalPos="3225.35" arrivalSpeed="30.69" duration="2948.00" routeLength="12089.48" waitingTime="150.00" waitingCount="6" stopTime="2237.00" timeLoss="226.41" rerouteNo="1" devices="vehroute_146 tripinfo_146 emissions_146" vType="vecType" speedFactor="1.08" vaporized="">
        <emissions CO_abs="72057.539391" CO2_abs="3304538.281707" HC_abs="409.807114" PMx_abs="73.516585" NOx_abs="1298.186549" fuel_abs="1054003.804502" electricity_abs="0"/>
    </tripinfo>
    <tripinfo id="118" depart="18240.00" departLane="8915254_0" departPos="5.10" departSpeed="0.00" departDelay="0.00" arrival="21433.00" arrivalLane="8915254_0" arrivalPos="317.12" arrivalSpeed="20.76" duration="3193.00" routeLength="9727.70" waitingTime="324.00" waitingCount="12" stopTime="1931.00" timeLoss="469.05" rerouteNo="1" devices="vehroute_118 tripinfo_118 emissions_118" vType="vecType" speedFactor="0.99" vaporized="">
        <emissions CO_abs="91349.047732" CO2_abs="3397680.183872" HC_abs="494.588896" PMx_abs="61.609614" NOx_abs="1390.608431" fuel_abs="1083727.489286" electricity_abs="0"/>
    </tripinfo>
    <tripinfo id="154" depart="18480.00" departLane="-27570786#2_0" departPos="5.10" departSpeed="0.00" departDelay="0.00" arrival="21451.00" arrivalLane="-27570786#2_0" arrivalPos="88.50" arrivalSpeed="11.84" duration="2971.00" routeLength="5558.23" waitingTime="203.00" waitingCount="9" stopTime="2209.00" timeLoss="300.43" rerouteNo="1" devices="vehroute_154 tripinfo_154 emissions_154" vType="vecType" speedFactor="1.08" vaporized="">
        <emissions CO_abs="55248.579807" CO2_abs="1984836.976246" HC_abs="297.058738" PMx_abs="35.592687" NOx_abs="813.836468" fuel_abs="633087.007985" electricity_abs="0"/>
    </tripinfo>
    <tripinfo id="225" depart="19020.00" departLane="191296172#0_0" departPos="5.10" departSpeed="0.00" departDelay="0.00" arrival="21499.00" arrivalLane="191296172#0_1" arrivalPos="157.44" arrivalSpeed="8.80" duration="2479.00" routeLength="9110.87" waitingTime="498.00" waitingCount="21" stopTime="938.00" timeLoss="672.29" rerouteNo="2" devices="vehroute_225 tripinfo_225 emissions_225" vType="vecType" speedFactor="0.86" vaporized="">
        <emissions CO_abs="127922.391274" CO2_abs="3777941.622905" HC_abs="669.351611" PMx_abs="70.874301" NOx_abs="1574.324354" fuel_abs="1205029.053443" electricity_abs="0"/>
    </tripinfo>
    <tripinfo id="86" depart="18120.00" departLane="-35977367#2_0" departPos="5.10" departSpeed="0.00" departDelay="0.00" arrival="21587.00" arrivalLane="-35977367#2_0" arrivalPos="431.73" arrivalSpeed="9.90" duration="3467.00" routeLength="5770.12" waitingTime="232.00" waitingCount="7" stopTime="2624.00" timeLoss="327.23" rerouteNo="2" devices="vehroute_86 tripinfo_86 emissions_86" vType="vecType" speedFactor="1.00" vaporized="">
        <emissions CO_abs="61859.012741" CO2_abs="2103069.128087" HC_abs="330.357756" PMx_abs="38.153156" NOx_abs="868.799335" fuel_abs="670799.878296" electricity_abs="0"/>
    </tripinfo>
    <tripinfo id="70" depart="18120.00" departLane="255330036#13_0" departPos="5.10" departSpeed="0.00" departDelay="0.00" arrival="21601.00" arrivalLane="255330036#13_0" arrivalPos="197.08" arrivalSpeed="10.36" duration="3481.00" routeLength="7430.88" waitingTime="163.00" waitingCount="8" stopTime="2626.00" timeLoss="257.51" rerouteNo="1" devices="vehroute_70 tripinfo_70 emissions_70" vType="vecType" speedFactor="1.02" vaporized="">
        <emissions CO_abs="52275.587231" CO2_abs="2261057.890217" HC_abs="290.300121" PMx_abs="38.774704" NOx_abs="908.638472" fuel_abs="721186.648014" electricity_abs="0"/>
    </tripinfo>
    <tripinfo id="285" depart="19563.00" departLane="90077241_0" departPos="5.10" departSpeed="0.00" departDelay="3.00" arrival="21634.00" arrivalLane="90077241_0" arrivalPos="3225.35" arrivalSpeed="30.04" duration="2071.00" routeLength="11348.91" waitingTime="32.00" waitingCount="3" stopTime="1557.00" timeLoss="72.45" rerouteNo="1" devices="vehroute_285 tripinfo_285 emissions_285" vType="vecType" speedFactor="1.05" vaporized="">
        <emissions CO_abs="43690.293349" CO2_abs="2640584.617720" HC_abs="264.713854" PMx_abs="57.723651" NOx_abs="1010.033643" fuel_abs="842225.389757" electricity_abs="0"/>
    </tripinfo>
    <tripinfo id="234" depart="19146.00" departLane="-254297762#2_0" departPos="5.10" departSpeed="0.00" departDelay="6.00" arrival="21660.00" arrivalLane="-254297762#2_0" arrivalPos="291.17" arrivalSpeed="10.19" duration="2514.00" routeLength="6212.26" waitingTime="292.00" waitingCount="11" stopTime="1573.00" timeLoss="392.94" rerouteNo="1" devices="vehroute_234 tripinfo_234 emissions_234" vType="vecType" speedFactor="1.02" vaporized="">
        <emissions CO_abs="71865.304839" CO2_abs="2320882.304773" HC_abs="380.831538" PMx_abs="41.945028" NOx_abs="956.045625" fuel_abs="740276.707680" electricity_abs="0"/>
    </tripinfo>
    <tripinfo id="49" depart="18063.00" departLane="31129765_0" departPos="5.10" departSpeed="0.00" departDelay="3.00" arrival="21668.00" arrivalLane="31129765_0" arrivalPos="639.51" arrivalSpeed="18.06" duration="3605.00" routeLength="12944.78" waitingTime="0.00" waitingCount="0" stopTime="3025.00" timeLoss="33.97" rerouteNo="1" devices="vehroute_49 tripinfo_49 emissions_49" vType="vecType" speedFactor="0.85" vaporized="">
        <emissions CO_abs="23017.883942" CO2_abs="2480229.044852" HC_abs="159.837712" PMx_abs="44.959810" NOx_abs="898.722960" fuel_abs="791075.915436" electricity_abs="0"/>
    </tripinfo>
    <tripinfo id="286" depart="19560.00" departLane="-24335483#9_0" departPos="5.10" departSpeed="0.00" departDelay="0.00" arrival="21688.00" arrivalLane="-24335483#9_0" arrivalPos="292.66" arrivalSpeed="10.51" duration="2128.00" routeLength="4210.80" waitingTime="38.00" waitingCount="2" stopTime="1646.00" timeLoss="91.14" rerouteNo="1" devices="vehroute_286 tripinfo_286 emissions_286" vType="vecType" speedFactor="0.97" vaporized="">
        <emissions CO_abs="21518.130554" CO2_abs="1124257.943628" HC_abs="123.777770" PMx_abs="17.331522" NOx_abs="444.586251" fuel_abs="358592.105986" electricity_abs="0"/>
    </tripinfo>
    <tripinfo id="166" depart="18546.00" departLane="90077241_0" departPos="5.10" departSpeed="0.00" departDelay="6.00" arrival="21707.00" arrivalLane="90077241_0" arrivalPos="3225.35" arrivalSpeed="29.92" duration="3161.00" routeLength="11564.84" waitingTime="80.00" waitingCount="4" stopTime="2577.00" timeLoss="131.80" rerouteNo="1" devices="vehroute_166 tripinfo_166 emissions_166" vType="vecType" speedFactor="1.06" vaporized="">
        <emissions CO_abs="54647.888931" CO2_abs="2878075.372123" HC_abs="320.484230" PMx_abs="63.415077" NOx_abs="1110.016961" fuel_abs="917977.499793" electricity_abs="0"/>
    </tripinfo>
    <tripinfo id="127" depart="18240.00" departLane="-204967525_0" departPos="5.10" departSpeed="0.00" departDelay="0.00" arrival="21725.00" arrivalLane="-204967525_1" arrivalPos="146.26" arrivalSpeed="8.71" duration="3485.00" routeLength="5247.72" waitingTime="160.00" waitingCount="9" stopTime="2666.00" timeLoss="247.58" rerouteNo="1" devices="vehroute_127 tripinfo_127 emissions_127" vType="vecType" speedFactor="0.82" vaporized="">
        <emissions CO_abs="52601.034394" CO2_abs="1767792.151288" HC_abs="279.924266" PMx_abs="29.735291" NOx_abs="719.737349" fuel_abs="563861.805736" electricity_abs="0"/>
    </tripinfo>
    <tripinfo id="144" depart="18480.00" departLane="142972028#1_0" departPos="5.10" departSpeed="0.00" departDelay="0.00" arrival="21726.00" arrivalLane="142972028#1_0" arrivalPos="161.20" arrivalSpeed="11.62" duration="3246.00" routeLength="7852.42" waitingTime="242.00" waitingCount="10" stopTime="2297.00" timeLoss="358.67" rerouteNo="1" devices="vehroute_144 tripinfo_144 emissions_144" vType="vecType" speedFactor="1.09" vaporized="">
        <emissions CO_abs="68981.006019" CO2_abs="2665363.673915" HC_abs="375.790194" PMx_abs="49.151062" NOx_abs="1093.016647" fuel_abs="850144.759181" electricity_abs="0"/>
    </tripinfo>
    <tripinfo id="199" depart="18720.00" departLane="-254297762#2_0" departPos="5.10" departSpeed="0.00" departDelay="0.00" arrival="21740.00" arrivalLane="-254297762#2_1" arrivalPos="291.17" arrivalSpeed="12.91" duration="3020.00" routeLength="6212.26" waitingTime="254.00" waitingCount="12" stopTime="2197.00" timeLoss="362.06" rerouteNo="1" devices="vehroute_199 tripinfo_199 emissions_199" vType="vecType" speedFactor="1.21" vaporized="">
        <emissions CO_abs="64853.215903" CO2_abs="2290911.511539" HC_abs="346.793580" PMx_abs="42.617855" NOx_abs="944.102575" fuel_abs="730712.104620" electricity_abs="0"/>
    </tripinfo>
    <tripinfo id="96" depart="18180.00" departLane="90077241_0" departPos="5.10" departSpeed="0.00" departDelay="0.00" arrival="21767.00" arrivalLane="90077241_0" arrivalPos="3225.35" arrivalSpeed="28.38" duration="3587.00" routeLength="15578.71" waitingTime="319.00" waitingCount="9" stopTime="2381.00" timeLoss="422.20" rerouteNo="2" devices="vehroute_96 tripinfo_96 emissions_96" vType="vecType" speedFactor="1.01" vaporized="">
        <emissions CO_abs="103058.152281" CO2_abs="4359090.587362" HC_abs="573.992606" PMx_abs="90.079831" NOx_abs="1728.181276" fuel_abs="1390368.131547" electricity_abs="0"/>
    </tripinfo>
    <tripinfo id="103" depart="18183.00" departLane="224384035#0_0" departPos="5.10" departSpeed="0.00" departDelay="3.00" arrival="21771.00" arrivalLane="224384035#0_0" arrivalPos="123.84" arrivalSpeed="10.01" duration="3588.00" routeLength="7111.43" waitingTime="440.00" waitingCount="19" stopTime="2340.00" timeLoss="583.96" rerouteNo="2" devices="vehroute_103 tripinfo_103 emissions_103" vType="vecType" speedFactor="0.95" vaporized="">
        <emissions CO_abs="106609.627585" CO2_abs="3099479.159988" HC_abs="557.063418" PMx_abs="58.955653" NOx_abs="1300.025186" fuel_abs="988623.684580" electricity_abs="0"/>
    </tripinfo>
    <tripinfo id="209" depart="18960.00" departLane="8916792_0" departPos="5.10" departSpeed="0.00" departDelay="0.00" arrival="21773.00" arrivalLane="8916792_0" arrivalPos="615.11" arrivalSpeed="10.21" duration="2813.00" routeLength="14342.97" waitingTime="322.00" waitingCount="11" stopTime="1468.00" timeLoss="451.04" rerouteNo="2" devices="vehroute_209 tripinfo_209 emissions_209" vType="vecType" speedFactor="1.01" vaporized="">
        <emissions CO_abs="99941.122678" CO2_abs="4140773.161466" HC_abs="553.318714" PMx_abs="79.868589" NOx_abs="1650.899585" fuel_abs="1320738.368652" electricity_abs="0"/>
    </tripinfo>
    <tripinfo id="104" depart="18180.00" departLane="8915254_0" departPos="5.10" departSpeed="0.00" departDelay="0.00" arrival="21783.00" arrivalLane="8915254_0" arrivalPos="317.12" arrivalSpeed="5.13" duration="3603.00" routeLength="5663.72" waitingTime="143.00" waitingCount="6" stopTime="2912.00" timeLoss="219.03" rerouteNo="2" devices="vehroute_104 tripinfo_104 emissions_104" vType="vecType" speedFactor="0.89" vaporized="">
        <emissions CO_abs="45579.937102" CO2_abs="1796825.818678" HC_abs="248.564616" PMx_abs="31.474305" NOx_abs="726.572150" fuel_abs="573116.825533" electricity_abs="0"/>
    </tripinfo>
    <tripinfo id="114" depart="18240.00" departLane="-254758120#3_0" departPos="5.10" departSpeed="0.00" departDelay="0.00" arrival="21783.00" arrivalLane="-254758120#3_0" arrivalPos="147.41" arrivalSpeed="5.72" duration="3543.00" routeLength="3346.72" waitingTime="281.00" waitingCount="9" stopTime="2916.00" timeLoss="353.80" rerouteNo="2" devices="vehroute_114 tripinfo_114 emissions_114" vType="vecType" speedFactor="1.10" vaporized="">