<?xml version="1.0" encoding="UTF-8"?>

<!-- generated on 2023-01-10 07:31:58 by Eclipse SUMO sumo Version 1.14.1
<configuration xmlns:xsi="http://www.w3.org/2001/XMLSchema-instance" xsi:noNamespaceSchemaLocation="http://sumo.dlr.de/xsd/sumoConfiguration.xsd">

    <input>
        <net-file value="./strategia2_config/../san_francisco.net.xml"/>
        <route-files value="./strategia2_config/../san_francisco.rou.xml"/>
        <additional-files value="./strategia2_config/../san_francisco.poly.xml,./strategia2_config/../parking_capacity_100%25/off_parking_100%25.add.xml,./strategia2_config/../parking_capacity_100%25/on_parking_100%25.add.xml"/>
    </input>

    <output>
        <emission-output value="./strategia2_config/../output/strategia2/100%25/emissions.xml"/>
        <tripinfo-output value="./strategia2_config/../output/strategia2/100%25/tripinfo.xml"/>
        <vehroute-output value="./strategia2_config/../output/strategia2/100%25/vehroute.xml"/>
        <stop-output value="./strategia2_config/../output/strategia2/100%25/stops.xml"/>
        <collision-output value="./strategia2_config/../output/strategia2/100%25/collision.xml"/>
        <statistic-output value="./strategia2_config/../output/strategia2/100%25/statistic.xml"/>
    </output>

    <time>
        <step-length value="1"/>
    </time>

    <processing>
        <ignore-route-errors value="false"/>
    </processing>

    <report>
        <verbose value="true"/>
        <xml-validation value="never"/>
    </report>

    <traci_server>
        <remote-port value="49870"/>
    </traci_server>

    <gui_only>
        <gui-settings-file value="./strategia2_config/../gui-settings.cfg"/>
        <start value="true"/>
    </gui_only>

</configuration>
-->

<tripinfos xmlns:xsi="http://www.w3.org/2001/XMLSchema-instance" xsi:noNamespaceSchemaLocation="http://sumo.dlr.de/xsd/tripinfo_file.xsd">
    <tripinfo id="6" depart="18000.00" departLane="225806031#0_0" departPos="5.10" departSpeed="0.00" departDelay="0.00" arrival="20156.00" arrivalLane="225806031#0_0" arrivalPos="142.16" arrivalSpeed="11.57" duration="2156.00" routeLength="6532.67" waitingTime="467.00" waitingCount="17" stopTime="994.00" timeLoss="604.34" rerouteNo="1" devices="vehroute_6 tripinfo_6 emissions_6" vType="vecType" speedFactor="1.05" vaporized="">
        <emissions CO_abs="105926.161260" CO2_abs="2988517.856173" HC_abs="551.597800" PMx_abs="58.263779" NOx_abs="1259.422745" fuel_abs="953231.634545" electricity_abs="0"/>
    </tripinfo>
    <tripinfo id="17" depart="18003.00" departLane="224384035#0_0" departPos="5.10" departSpeed="0.00" departDelay="3.00" arrival="20323.00" arrivalLane="224384035#0_0" arrivalPos="123.84" arrivalSpeed="9.91" duration="2320.00" routeLength="7142.89" waitingTime="294.00" waitingCount="14" stopTime="1227.00" timeLoss="419.75" rerouteNo="1" devices="vehroute_17 tripinfo_17 emissions_17" vType="vecType" speedFactor="0.94" vaporized="">
        <emissions CO_abs="79853.170617" CO2_abs="2622478.328296" HC_abs="423.975437" PMx_abs="46.808506" NOx_abs="1079.826474" fuel_abs="836474.317054" electricity_abs="0"/>
    </tripinfo>
    <tripinfo id="127" depart="18240.00" departLane="-204967525_0" departPos="5.10" departSpeed="0.00" departDelay="0.00" arrival="20466.00" arrivalLane="-204967525_0" arrivalPos="146.26" arrivalSpeed="7.98" duration="2226.00" routeLength="5247.72" waitingTime="171.00" waitingCount="10" stopTime="1388.00" timeLoss="266.22" rerouteNo="1" devices="vehroute_127 tripinfo_127 emissions_127" vType="vecType" speedFactor="0.82" vaporized="">
        <emissions CO_abs="55616.557498" CO2_abs="1833699.199379" HC_abs="295.234761" PMx_abs="31.408754" NOx_abs="750.473065" fuel_abs="584883.781669" electricity_abs="0"/>
    </tripinfo>
    <tripinfo id="60" depart="18060.00" departLane="8916792_0" departPos="5.10" departSpeed="0.00" departDelay="0.00" arrival="20468.00" arrivalLane="8916792_0" arrivalPos="615.11" arrivalSpeed="11.65" duration="2408.00" routeLength="3743.73" waitingTime="25.00" waitingCount="3" stopTime="2028.00" timeLoss="69.97" rerouteNo="1" devices="vehroute_60 tripinfo_60 emissions_60" vType="vecType" speedFactor="1.08" vaporized="">
        <emissions CO_abs="14414.586152" CO2_abs="898383.991846" HC_abs="85.904314" PMx_abs="12.801400" NOx_abs="344.694307" fuel_abs="286547.297788" electricity_abs="0"/>
    </tripinfo>
    <tripinfo id="162" depart="18543.00" departLane="90077241_0" departPos="5.10" departSpeed="0.00" departDelay="3.00" arrival="20547.00" arrivalLane="90077241_0" arrivalPos="3225.35" arrivalSpeed="28.77" duration="2004.00" routeLength="11625.26" waitingTime="105.00" waitingCount="4" stopTime="1379.00" timeLoss="163.57" rerouteNo="1" devices="vehroute_162 tripinfo_162 emissions_162" vType="vecType" speedFactor="1.00" vaporized="">
        <emissions CO_abs="53949.678281" CO2_abs="2918138.657612" HC_abs="316.932677" PMx_abs="61.914654" NOx_abs="1123.440833" fuel_abs="930756.493518" electricity_abs="0"/>
    </tripinfo>
    <tripinfo id="138" depart="18420.00" departLane="-27570786#2_0" departPos="5.10" departSpeed="0.00" departDelay="0.00" arrival="20643.00" arrivalLane="-27570786#2_0" arrivalPos="88.50" arrivalSpeed="11.10" duration="2223.00" routeLength="7542.50" waitingTime="399.00" waitingCount="17" stopTime="1009.00" timeLoss="541.62" rerouteNo="1" devices="vehroute_138 tripinfo_138 emissions_138" vType="vecType" speedFactor="1.00" vaporized="">
        <emissions CO_abs="97844.555029" CO2_abs="3002897.728143" HC_abs="514.931560" PMx_abs="55.371468" NOx_abs="1245.230322" fuel_abs="957816.455122" electricity_abs="0"/>
    </tripinfo>
    <tripinfo id="139" depart="18420.00" departLane="90077241_0" departPos="5.10" departSpeed="0.00" departDelay="0.00" arrival="20652.00" arrivalLane="90077241_0" arrivalPos="3225.35" arrivalSpeed="26.53" duration="2232.00" routeLength="12787.12" waitingTime="306.00" waitingCount="9" stopTime="1228.00" timeLoss="385.07" rerouteNo="1" devices="vehroute_139 tripinfo_139 emissions_139" vType="vecType" speedFactor="0.95" vaporized="">
        <emissions CO_abs="89504.177997" CO2_abs="3638771.438013" HC_abs="494.234384" PMx_abs="75.101154" NOx_abs="1443.359594" fuel_abs="1160618.454072" electricity_abs="0"/>
    </tripinfo>
    <tripinfo id="140" depart="18420.00" departLane="-35977367#2_0" departPos="5.10" departSpeed="0.00" departDelay="0.00" arrival="20652.00" arrivalLane="-35977367#2_0" arrivalPos="431.73" arrivalSpeed="11.25" duration="2232.00" routeLength="5425.30" waitingTime="57.00" waitingCount="3" stopTime="1663.00" timeLoss="132.98" rerouteNo="1" devices="vehroute_140 tripinfo_140 emissions_140" vType="vecType" speedFactor="1.11" vaporized="">
        <emissions CO_abs="28066.927204" CO2_abs="1547653.585172" HC_abs="162.911174" PMx_abs="25.174853" NOx_abs="615.684552" fuel_abs="493635.769687" electricity_abs="0"/>
    </tripinfo>
    <tripinfo id="98" depart="18180.00" departLane="-254297762#2_0" departPos="5.10" departSpeed="0.00" departDelay="0.00" arrival="20664.00" arrivalLane="-254297762#2_0" arrivalPos="291.17" arrivalSpeed="12.04" duration="2484.00" routeLength="8468.95" waitingTime="496.00" waitingCount="20" stopTime="1144.00" timeLoss="664.04" rerouteNo="2" devices="vehroute_98 tripinfo_98 emissions_98" vType="vecType" speedFactor="1.12" vaporized="">
        <emissions CO_abs="117639.544895" CO2_abs="3618542.420035" HC_abs="618.669216" PMx_abs="69.689918" NOx_abs="1514.721581" fuel_abs="1154181.719388" electricity_abs="0"/>
    </tripinfo>
    <tripinfo id="207" depart="18966.00" departLane="90077241_0" departPos="5.10" departSpeed="0.00" departDelay="6.00" arrival="20668.00" arrivalLane="90077241_0" arrivalPos="3225.35" arrivalSpeed="24.57" duration="1702.00" routeLength="11810.95" waitingTime="86.00" waitingCount="4" stopTime="981.00" timeLoss="148.78" rerouteNo="1" devices="vehroute_207 tripinfo_207 emissions_207" vType="vecType" speedFactor="0.87" vaporized="">
        <emissions CO_abs="43718.903912" CO2_abs="2695878.169044" HC_abs="261.224261" PMx_abs="51.437608" NOx_abs="1025.552669" fuel_abs="859865.191447" electricity_abs="0"/>
    </tripinfo>
    <tripinfo id="171" depart="18540.00" departLane="123867455_0" departPos="5.10" departSpeed="0.00" departDelay="0.00" arrival="20764.00" arrivalLane="123867455_0" arrivalPos="904.85" arrivalSpeed="30.96" duration="2224.00" routeLength="6303.61" waitingTime="215.00" waitingCount="9" stopTime="1557.00" timeLoss="297.69" rerouteNo="1" devices="vehroute_171 tripinfo_171 emissions_171" vType="vecType" speedFactor="1.11" vaporized="">
        <emissions CO_abs="63153.546790" CO2_abs="2316845.714932" HC_abs="342.422966" PMx_abs="47.957055" NOx_abs="953.924627" fuel_abs="738979.811555" electricity_abs="0"/>
    </tripinfo>
    <tripinfo id="128" depart="18300.00" departLane="-133781749_0" departPos="5.10" departSpeed="0.00" departDelay="0.00" arrival="20847.00" arrivalLane="-133781749_0" arrivalPos="138.68" arrivalSpeed="12.10" duration="2547.00" routeLength="7923.97" waitingTime="352.00" waitingCount="20" stopTime="1453.00" timeLoss="509.28" rerouteNo="1" devices="vehroute_128 tripinfo_128 emissions_128" vType="vecType" speedFactor="1.12" vaporized="">
        <emissions CO_abs="93481.089523" CO2_abs="3165973.496093" HC_abs="498.674097" PMx_abs="61.219658" NOx_abs="1317.960729" fuel_abs="1009823.230134" electricity_abs="0"/>
    </tripinfo>
    <tripinfo id="217" depart="18960.00" departLane="84823308_0" departPos="5.10" departSpeed="0.00" departDelay="0.00" arrival="20933.00" arrivalLane="84823308_0" arrivalPos="275.63" arrivalSpeed="11.16" duration="1973.00" routeLength="4225.34" waitingTime="123.00" waitingCount="5" stopTime="1415.00" timeLoss="187.99" rerouteNo="1" devices="vehroute_217 tripinfo_217 emissions_217" vType="vecType" speedFactor="1.02" vaporized="">
        <emissions CO_abs="36088.003505" CO2_abs="1373786.784327" HC_abs="196.019795" PMx_abs="23.776352" NOx_abs="558.943546" fuel_abs="438184.918064" electricity_abs="0"/>
    </tripinfo>
    <tripinfo id="37" depart="18003.00" departLane="27398045#1_0" departPos="5.10" departSpeed="0.00" departDelay="3.00" arrival="20977.00" arrivalLane="27398045#1_0" arrivalPos="122.17" arrivalSpeed="12.91" duration="2974.00" routeLength="6763.75" waitingTime="326.00" waitingCount="14" stopTime="2000.00" timeLoss="464.32" rerouteNo="1" devices="vehroute_37 tripinfo_37 emissions_37" vType="vecType" speedFactor="1.18" vaporized="">
        <emissions CO_abs="81392.506637" CO2_abs="2718775.513836" HC_abs="432.205532" PMx_abs="51.525530" NOx_abs="1130.324079" fuel_abs="867185.750166" electricity_abs="0"/>
    </tripinfo>
    <tripinfo id="49" depart="18063.00" departLane="31129765_0" departPos="5.10" departSpeed="0.00" departDelay="3.00" arrival="21015.00" arrivalLane="31129765_0" arrivalPos="639.51" arrivalSpeed="18.31" duration="2952.00" routeLength="12944.78" waitingTime="1.00" waitingCount="1" stopTime="2370.00" timeLoss="35.91" rerouteNo="1" devices="vehroute_49 tripinfo_49 emissions_49" vType="vecType" speedFactor="0.85" vaporized="">
        <emissions CO_abs="23129.476369" CO2_abs="2480664.364090" HC_abs="160.754702" PMx_abs="44.971925" NOx_abs="898.625845" fuel_abs="791214.997178" electricity_abs="0"/>
    </tripinfo>
    <tripinfo id="59" depart="18063.00" departLane="-27029200#2_0" departPos="5.10" departSpeed="0.00" departDelay="3.00" arrival="21018.00" arrivalLane="-27029200#2_0" arrivalPos="66.62" arrivalSpeed="10.44" duration="2955.00" routeLength="7133.74" waitingTime="145.00" waitingCount="7" stopTime="2120.00" timeLoss="233.73" rerouteNo="2" devices="vehroute_59 tripinfo_59 emissions_59" vType="vecType" speedFactor="0.97" vaporized="">
        <emissions CO_abs="49062.585040" CO2_abs="2115224.773782" HC_abs="272.042627" PMx_abs="35.637978" NOx_abs="846.884334" fuel_abs="674672.430347" electricity_abs="0"/>
    </tripinfo>
    <tripinfo id="115" depart="18240.00" departLane="90077241_0" departPos="5.10" departSpeed="0.00" departDelay="0.00" arrival="21021.00" arrivalLane="90077241_0" arrivalPos="3225.35" arrivalSpeed="25.55" duration="2781.00" routeLength="13066.86" waitingTime="194.00" waitingCount="7" stopTime="1846.00" timeLoss="267.68" rerouteNo="1" devices="vehroute_115 tripinfo_115 emissions_115" vType="vecType" speedFactor="0.92" vaporized="">
        <emissions CO_abs="67484.467708" CO2_abs="3310100.402809" HC_abs="384.826586" PMx_abs="64.360441" NOx_abs="1276.723159" fuel_abs="1055781.957003" electricity_abs="0"/>
    </tripinfo>
    <tripinfo id="124" depart="18240.00" departLane="254396707#6_0" departPos="5.10" departSpeed="0.00" departDelay="0.00" arrival="21044.00" arrivalLane="254396707#6_0" arrivalPos="139.12" arrivalSpeed="11.26" duration="2804.00" routeLength="6387.85" waitingTime="698.00" waitingCount="23" stopTime="1422.00" timeLoss="844.93" rerouteNo="2" devices="vehroute_124 tripinfo_124 emissions_124" vType="vecType" speedFactor="1.06" vaporized="">
        <emissions CO_abs="144966.172045" CO2_abs="3624014.973893" HC_abs="744.345256" PMx_abs="74.605459" NOx_abs="1553.137924" fuel_abs="1155938.761316" electricity_abs="0"/>
    </tripinfo>
    <tripinfo id="74" depart="18120.00" departLane="144489137#0_0" departPos="5.10" departSpeed="0.00" departDelay="0.00" arrival="21060.00" arrivalLane="144489137#0_0" arrivalPos="135.49" arrivalSpeed="10.57" duration="2940.00" routeLength="2278.79" waitingTime="163.00" waitingCount="6" stopTime="2519.00" timeLoss="210.22" rerouteNo="2" devices="vehroute_74 tripinfo_74 emissions_74" vType="vecType" speedFactor="0.96" vaporized="">
        <emissions CO_abs="38370.323292" CO2_abs="1065433.444881" HC_abs="199.410520" PMx_abs="20.789658" NOx_abs="450.209928" fuel_abs="339835.907485" electricity_abs="0"/>
    </tripinfo>
    <tripinfo id="120" depart="18240.00" departLane="86303763#0_0" departPos="5.10" departSpeed="0.00" departDelay="0.00" arrival="21085.00" arrivalLane="86303763#0_0" arrivalPos="139.93" arrivalSpeed="10.43" duration="2845.00" routeLength="6293.95" waitingTime="493.00" waitingCount="16" stopTime="1628.00" timeLoss="620.16" rerouteNo="2" devices="vehroute_120 tripinfo_120 emissions_120" vType="vecType" speedFactor="0.94" vaporized="">
        <emissions CO_abs="111048.798324" CO2_abs="2972351.454555" HC_abs="574.473781" PMx_abs="57.798519" NOx_abs="1255.312953" fuel_abs="948078.614951" electricity_abs="0"/>
    </tripinfo>
    <tripinfo id="66" depart="18060.00" departLane="-206662304#13_0" departPos="5.10" departSpeed="0.00" departDelay="0.00" arrival="21121.00" arrivalLane="-206662304#13_0" arrivalPos="290.52" arrivalSpeed="9.29" duration="3061.00" routeLength="6773.96" waitingTime="293.00" waitingCount="17" stopTime="1971.00" timeLoss="421.04" rerouteNo="1" devices="vehroute_66 tripinfo_66 emissions_66" vType="vecType" speedFactor="0.91" vaporized="">
        <emissions CO_abs="81170.917816" CO2_abs="2574990.128469" HC_abs="428.911339" PMx_abs="46.107350" NOx_abs="1063.365953" fuel_abs="821328.750316" electricity_abs="0"/>
    </tripinfo>
    <tripinfo id="142" depart="18480.00" departLane="-27029204_0" departPos="5.10" departSpeed="0.00" departDelay="0.00" arrival="21123.00" arrivalLane="-27029204_0" arrivalPos="195.60" arrivalSpeed="10.37" duration="2643.00" routeLength="7406.90" waitingTime="243.00" waitingCount="8" stopTime="1651.00" timeLoss="343.83" rerouteNo="2" devices="vehroute_142 tripinfo_142 emissions_142" vType="vecType" speedFactor="0.94" vaporized="">
        <emissions CO_abs="68411.780426" CO2_abs="2473714.424718" HC_abs="368.418393" PMx_abs="43.508430" NOx_abs="1006.671696" fuel_abs="789020.924837" electricity_abs="0"/>
    </tripinfo>
    <tripinfo id="150" depart="18480.00" departLane="144489137#0_0" departPos="5.10" departSpeed="0.00" departDelay="0.00" arrival="21128.00" arrivalLane="144489137#0_0" arrivalPos="135.49" arrivalSpeed="11.03" duration="2648.00" routeLength="6188.13" waitingTime="280.00" waitingCount="12" stopTime="1726.00" timeLoss="387.18" rerouteNo="2" devices="vehroute_150 tripinfo_150 emissions_150" vType="vecType" speedFactor="1.03" vaporized="">
        <emissions CO_abs="70347.663235" CO2_abs="2298488.262845" HC_abs="373.181773" PMx_abs="41.520405" NOx_abs="945.310112" fuel_abs="733133.424778" electricity_abs="0"/>
    </tripinfo>
    <tripinfo id="185" depart="18600.00" departLane="90077241_0" departPos="5.10" departSpeed="0.00" departDelay="0.00" arrival="21166.00" arrivalLane="90077241_0" arrivalPos="3225.35" arrivalSpeed="30.51" duration="2566.00" routeLength="13070.62" waitingTime="329.00" waitingCount="9" stopTime="1570.00" timeLoss="423.85" rerouteNo="1" devices="vehroute_185 tripinfo_185 emissions_185" vType="vecType" speedFactor="1.07" vaporized="">
        <emissions CO_abs="104766.486584" CO2_abs="4030209.097242" HC_abs="575.436452" PMx_abs="88.544057" NOx_abs="1617.294234" fuel_abs="1285469.942331" electricity_abs="0"/>
    </tripinfo>
    <tripinfo id="282" depart="19560.00" departLane="90077241_0" departPos="5.10" departSpeed="0.00" departDelay="0.00" arrival="21182.00" arrivalLane="90077241_0" arrivalPos="3225.35" arrivalSpeed="28.67" duration="1622.00" routeLength="12000.94" waitingTime="105.00" waitingCount="4" stopTime="918.00" timeLoss="185.91" rerouteNo="1" devices="vehroute_282 tripinfo_282 emissions_282" vType="vecType" speedFactor="1.01" vaporized="">
        <emissions CO_abs="57459.468066" CO2_abs="3019040.028768" HC_abs="335.603609" PMx_abs="63.620140" NOx_abs="1171.879940" fuel_abs="962940.299127" electricity_abs="0"/>
    </tripinfo>
    <tripinfo id="111" depart="18180.00" departLane="-133755930#1_0" departPos="5.10" departSpeed="0.00" departDelay="0.00" arrival="21346.00" arrivalLane="-133755930#1_1" arrivalPos="16.00" arrivalSpeed="9.01" duration="3166.00" routeLength="4779.15" waitingTime="479.00" waitingCount="16" stopTime="2089.00" timeLoss="582.69" rerouteNo="1" devices="vehroute_111 tripinfo_111 emissions_111" vType="vecType" speedFactor="0.87" vaporized="">
        <emissions CO_abs="104956.495850" CO2_abs="2571315.373614" HC_abs="537.415000" PMx_abs="51.338403" NOx_abs="1096.863155" fuel_abs="820165.741675" electricity_abs="0"/>
    </tripinfo>
    <tripinfo id="159" depart="18540.00" departLane="28805009#5_0" departPos="5.10" departSpeed="0.00" departDelay="0.00" arrival="21356.00" arrivalLane="28805009#5_0" arrivalPos="49.78" arrivalSpeed="10.31" duration="2816.00" routeLength="3704.12" waitingTime="60.00" waitingCount="3" stopTime="2343.00" timeLoss="115.56" rerouteNo="1" devices="vehroute_159 tripinfo_159 emissions_159" vType="vecType" speedFactor="0.93" vaporized="">
        <emissions CO_abs="25326.282720" CO2_abs="1100177.273854" HC_abs="140.559947" PMx_abs="17.672155" NOx_abs="440.805209" fuel_abs="350913.166157" electricity_abs="0"/>
    </tripinfo>
    <tripinfo id="137" depart="18420.00" departLane="-204967525_0" departPos="5.10" departSpeed="0.00" departDelay="0.00" arrival="21359.00" arrivalLane="-204967525_1" arrivalPos="146.26" arrivalSpeed="10.90" duration="2939.00" routeLength="5393.50" waitingTime="175.00" waitingCount="7" stopTime="2166.00" timeLoss="260.71" rerouteNo="1" devices="vehroute_137 tripinfo_137 emissions_137" vType="vecType" speedFactor="1.02" vaporized="">
        <emissions CO_abs="51221.361818" CO2_abs="1810937.141220" HC_abs="274.838342" PMx_abs="30.794847" NOx_abs="732.982390" fuel_abs="577621.975082" electricity_abs="0"/>
    </tripinfo>
    <tripinfo id="292" depart="19680.00" departLane="90077241_0" departPos="5.10" departSpeed="0.00" departDelay="0.00" arrival="21434.00" arrivalLane="90077241_0" arrivalPos="3225.35" arrivalSpeed="31.00" duration="1754.00" routeLength="13350.41" waitingTime="152.00" waitingCount="6" stopTime="932.00" timeLoss="226.45" rerouteNo="2" devices="vehroute_292 tripinfo_292 emissions_292" vType="vecType" speedFactor="1.08" vaporized="">
        <emissions CO_abs="74152.853005" CO2_abs="3567244.611806" HC_abs="425.370304" PMx_abs="76.655474" NOx_abs="1394.093004" fuel_abs="1137795.659384" electricity_abs="0"/>
    </tripinfo>
    <tripinfo id="244" depart="19443.00" departLane="225806031#0_0" departPos="5.10" departSpeed="0.00" departDelay="3.00" arrival="21507.00" arrivalLane="225806031#0_0" arrivalPos="142.16" arrivalSpeed="10.06" duration="2064.00" routeLength="6716.89" waitingTime="409.00" waitingCount="19" stopTime="907.00" timeLoss="554.26" rerouteNo="2" devices="vehroute_244 tripinfo_244 emissions_244" vType="vecType" speedFactor="0.99" vaporized="">
        <emissions CO_abs="98801.862060" CO2_abs="2885053.863059" HC_abs="516.707056" PMx_abs="54.690694" NOx_abs="1207.461829" fuel_abs="920229.726779" electricity_abs="0"/>
    </tripinfo>
    <tripinfo id="118" depart="18240.00" departLane="8915254_0" departPos="5.10" departSpeed="0.00" departDelay="0.00" arrival="21523.00" arrivalLane="8915254_0" arrivalPos="317.12" arrivalSpeed="21.86" duration="3283.00" routeLength="9727.70" waitingTime="318.00" waitingCount="14" stopTime="2027.00" timeLoss="462.94" rerouteNo="1" devices="vehroute_118 tripinfo_118 emissions_118" vType="vecType" speedFactor="0.99" vaporized="">
        <emissions CO_abs="90682.086256" CO2_abs="3371915.601923" HC_abs="491.020671" PMx_abs="61.194230" NOx_abs="1379.803922" fuel_abs="1075509.611571" electricity_abs="0"/>
    </tripinfo>
    <tripinfo id="166" depart="18546.00" departLane="90077241_0" departPos="5.10" departSpeed="0.00" departDelay="6.00" arrival="21528.00" arrivalLane="90077241_0" arrivalPos="3225.35" arrivalSpeed="30.82" duration="2982.00" routeLength="11564.84" waitingTime="19.00" waitingCount="1" stopTime="2464.00" timeLoss="65.33" rerouteNo="1" devices="vehroute_166 tripinfo_166 emissions_166" vType="vecType" speedFactor="1.06" vaporized="">
        <emissions CO_abs="44094.826395" CO2_abs="2688269.094279" HC_abs="267.833001" PMx_abs="58.965195" NOx_abs="1030.615643" fuel_abs="857434.011190" electricity_abs="0"/>
    </tripinfo>
    <tripinfo id="229" depart="19140.00" departLane="148847001#0_0" departPos="5.10" departSpeed="0.00" departDelay="0.00" arrival="21653.00" arrivalLane="148847001#0_0" arrivalPos="105.06" arrivalSpeed="10.15" duration="2513.00" routeLength="10155.63" waitingTime="343.00" waitingCount="10" stopTime="1176.00" timeLoss="477.45" rerouteNo="2" devices="vehroute_229 tripinfo_229 emissions_229" vType="vecType" speedFactor="0.95" vaporized="">
        <emissions CO_abs="93800.125288" CO2_abs="3375303.534893" HC_abs="504.362662" PMx_abs="60.309515" NOx_abs="1376.087218" fuel_abs="1076592.901410" electricity_abs="0"/>
    </tripinfo>
    <tripinfo id="3" depart="18000.00" departLane="-133781749_0" departPos="5.10" departSpeed="0.00" departDelay="0.00" arrival="21659.00" arrivalLane="-133781749_0" arrivalPos="138.68" arrivalSpeed="10.99" duration="3659.00" routeLength="7501.04" waitingTime="199.00" waitingCount="11" stopTime="2771.00" timeLoss="318.87" rerouteNo="1" devices="vehroute_3 tripinfo_3 emissions_3" vType="vecType" speedFactor="1.08" vaporized="">
        <emissions CO_abs="61213.775153" CO2_abs="2493681.700200" HC_abs="336.399595" PMx_abs="45.020757" NOx_abs="1014.730305" fuel_abs="795384.107357" electricity_abs="0"/>
    </tripinfo>
    <tripinfo id="286" depart="19560.00" departLane="-24335483#9_0" departPos="5.10" departSpeed="0.00" departDelay="0.00" arrival="21726.00" arrivalLane="-24335483#9_0" arrivalPos="292.66" arrivalSpeed="9.74" duration="2166.00" routeLength="4210.80" waitingTime="49.00" waitingCount="3" stopTime="1677.00" timeLoss="98.20" rerouteNo="1" devices="vehroute_286 tripinfo_286 emissions_286" vType="vecType" speedFactor="0.97" vaporized="">
        <emissions CO_abs="22958.190786" CO2_abs="1141021.899387" HC_abs="130.698669" PMx_abs="17.638619" NOx_abs="451.280363" fuel_abs="363939.793965" electricity_abs="0"/>
    </tripinfo>
    <tripinfo id="94" depart="18120.00" departLane="254758124#0_0" departPos="5.10" departSpeed="0.00" departDelay="0.00" arrival="21746.00" arrivalLane="254758124#0_1" arrivalPos="106.41" arrivalSpeed="11.63" duration="3626.00" routeLength="12338.45" waitingTime="451.00" waitingCount="17" stopTime="2388.00" timeLoss="595.92" rerouteNo="2" devices="vehroute_94 tripinfo_94 emissions_94" vType="vecType" speedFactor="1.09" vaporized="">
        <emissions CO_abs="126598.476947" CO2_abs="4331750.098746" HC_abs="680.403946" PMx_abs="92.857796" NOx_abs="1777.331422" fuel_abs="1381656.426119" electricity_abs="0"/>
    </tripinfo>
    <tripinfo id="134" depart="18360.00" departLane="8916767#0_0" departPos="5.10" departSpeed="0.00" departDelay="0.00" arrival="21778.00" arrivalLane="8916767#0_0" arrivalPos="129.66" arrivalSpeed="13.22" duration="3418.00" routeLength="6996.47" waitingTime="308.00" waitingCount="15" stopTime="2466.00" timeLoss="440.44" rerouteNo="2" devices="vehroute_134 tripinfo_134 emissions_134" vType="vecType" speedFactor="1.23" vaporized="">
        <emissions CO_abs="79580.627445" CO2_abs="2806778.362217" HC_abs="425.759828" PMx_abs="53.047283" NOx_abs="1163.712597" fuel_abs="895252.683038" electricity_abs="0"/>
    </tripinfo>
    <tripinfo id="307" depart="19860.00" departLane="47172109#0_0" departPos="5.10" departSpeed="0.00" departDelay="0.00" arrival="21908.00" arrivalLane="47172109#0_0" arrivalPos="192.98" arrivalSpeed="9.94" duration="2048.00" routeLength="5759.09" waitingTime="254.00" waitingCount="8" stopTime="1270.00" timeLoss="336.04" rerouteNo="2" devices="vehroute_307 tripinfo_307 emissions_307" vType="vecType" speedFactor="0.94" vaporized="">
        <emissions CO_abs="64170.983985" CO2_abs="2118703.682459" HC_abs="341.325763" PMx_abs="40.410623" NOx_abs="873.075021" fuel_abs="675786.648794" electricity_abs="0"/>
    </tripinfo>
    <tripinfo id="243" depart="19440.00" departLane="-48211196#4_0" departPos="5.10" departSpeed="0.00" departDelay="0.00" arrival="21941.00" arrivalLane="-48211196#4_0" arrivalPos="148.04" arrivalSpeed="11.56" duration="2501.00" routeLength="8633.65" waitingTime="603.00" waitingCount="23" stopTime="976.00" timeLoss="793.31" rerouteNo="2" devices="vehroute_243 tripinfo_243 emissions_243" vType="vecType" speedFactor="1.06" vaporized="">
        <emissions CO_abs="137667.415511" CO2_abs="3945970.388274" HC_abs="718.058089" PMx_abs="76.235252" NOx_abs="1658.286716" fuel_abs="1258624.582858" electricity_abs="0"/>
    </tripinfo>
    <tripinfo id="240" depart="19440.00" departLane="-254758120#3_0" departPos="5.10" departSpeed="0.00" departDelay="0.00" arrival="21979.00" arrivalLane="-254758120#3_0" arrivalPos="147.41" arrivalSpeed="9.25" duration="2539.00" routeLength="3707.63" waitingTime="161.00" waitingCount="6" stopTime="1926.00" timeLoss="222.32" rerouteNo="1" devices="vehroute_240 tripinfo_240 emissions_240" vType="vecType" speedFactor="0.85" vaporized="">
        <emissions CO_abs="44768.936759" CO2_abs="1393847.460070" HC_abs="235.804419" PMx_abs="24.375403" NOx_abs="572.704495" fuel_abs="444588.063040" electricity_abs="0"/>
    </tripinfo>
    <tripinfo id="44" depart="18060.00" departLane="8915254_0" departPos="5.10" departSpeed="0.00" departDelay="0.00" arrival="21983.00" arrivalLane="8915254_0" arrivalPos="317.12" arrivalSpeed="23.01" duration="3923.00" routeLength="7777.74" waitingTime="295.00" waitingCount="12" stopTime="2913.00" timeLoss="424.02" rerouteNo="1" devices="vehroute_44 tripinfo_44 emissions_44" vType="vecType" speedFactor="1.04" vaporized="">
        <emissions CO_abs="80045.925610" CO2_abs="2870419.420016" HC_abs="431.079899" PMx_abs="54.090054" NOx_abs="1182.673407" fuel_abs="915551.787741" electricity_abs="0"/>
    </tripinfo>
    <tripinfo id="0" depart="18000.00" departLane="84823308_0" departPos="5.10" departSpeed="0.00" departDelay="0.00" arrival="22035.00" arrivalLane="84823308_0" arrivalPos="275.63" arrivalSpeed="11.36" duration="4035.00" routeLength="5732.03" waitingTime="262.00" waitingCount="12" stopTime="3183.00" timeLoss="367.79" rerouteNo="2" devices="vehroute_0 tripinfo_0 emissions_0" vType="vecType" speedFactor="1.06" vaporized="">
        <emissions CO_abs="66101.301124" CO2_abs="2203166.273023" HC_abs="351.698489" PMx_abs="40.093864" NOx_abs="908.280493" fuel_abs="702727.988517" electricity_abs="0"/>
    </tripinfo>
    <tripinfo id="190" depart="18660.00" departLane="-206662304#13_0" departPos="5.10" departSpeed="0.00" departDelay="0.00" arrival="22036.00" arrivalLane="-206662304#13_0" arrivalPos="290.52" arrivalSpeed="8.84" duration="3376.00" routeLength="7813.84" waitingTime="300.00" waitingCount="14" stopTime="2104.00" timeLoss="434.87" rerouteNo="2" devices="vehroute_190 tripinfo_190 emissions_190" vType="vecType" speedFactor="0.84" vaporized="">
        <emissions CO_abs="88341.553996" CO2_abs="2824034.191668" HC_abs="466.993070" PMx_abs="49.084183" NOx_abs="1159.400512" fuel_abs="900765.832580" electricity_abs="0"/>
    </tripinfo>
    <tripinfo id="133" depart="18360.00" departLane="-27167281#1_0" departPos="5.10" departSpeed="0.00" departDelay="0.00" arrival="22120.00" arrivalLane="-27167281#1_0" arrivalPos="192.19" arrivalSpeed="10.77" duration="3760.00" routeLength="12787.03" waitingTime="169.00" waitingCount="8" stopTime="2802.00" timeLoss="277.20" rerouteNo="1" devices="vehroute_133 tripinfo_133 emissions_133" vType="vecType" speedFactor="1.04" vaporized="">
        <emissions CO_abs="72333.273257" CO2_abs="3515327.709400" HC_abs="413.457775" PMx_abs="70.126330" NOx_abs="1386.835223" fuel_abs="1121238.253430" electricity_abs="0"/>
    </tripinfo>
    <tripinfo id="55" depart="18060.00" departLane="-204967525_0" departPos="5.10" departSpeed="0.00" departDelay="0.00" arrival="22169.00" arrivalLane="-204967525_1" arrivalPos="146.26" arrivalSpeed="9.95" duration="4109.00" routeLength="7470.98" waitingTime="336.00" waitingCount="15" stopTime="2964.00" timeLoss="474.01" rerouteNo="1" devices="vehroute_55 tripinfo_55 emissions_55" vType="vecType" speedFactor="1.00" vaporized="">