<?xml version="1.0" encoding="UTF-8"?>

<!-- generated on 2023-01-20 11:53:07 by Eclipse SUMO sumo Version 1.14.1
<configuration xmlns:xsi="http://www.w3.org/2001/XMLSchema-instance" xsi:noNamespaceSchemaLocation="http://sumo.dlr.de/xsd/sumoConfiguration.xsd">

    <input>
        <net-file value="./strategia2_config/../san_francisco.net.xml"/>
        <route-files value="./strategia2_config/../san_francisco.rou.xml"/>
        <additional-files value="./strategia2_config/../san_francisco.poly.xml,./strategia2_config/../parking_capacity_75%25/off_parking_75%25.add.xml,./strategia2_config/../parking_capacity_75%25/on_parking_75%25.add.xml"/>
    </input>

    <output>
        <emission-output value="./strategia2_config/../output/strategia2/75%25/emissions.xml"/>
        <tripinfo-output value="./strategia2_config/../output/strategia2/75%25/tripinfo.xml"/>
        <vehroute-output value="./strategia2_config/../output/strategia2/75%25/vehroute.xml"/>
        <stop-output value="./strategia2_config/../output/strategia2/75%25/stops.xml"/>
        <collision-output value="./strategia2_config/../output/strategia2/75%25/collision.xml"/>
        <statistic-output value="./strategia2_config/../output/strategia2/75%25/statistic.xml"/>
    </output>

    <time>
        <step-length value="1"/>
    </time>

    <processing>
        <ignore-route-errors value="false"/>
    </processing>

    <report>
        <verbose value="true"/>
        <xml-validation value="never"/>
    </report>

    <traci_server>
        <remote-port value="55586"/>
    </traci_server>

    <gui_only>
        <gui-settings-file value="./strategia2_config/../gui-settings.cfg"/>
        <start value="true"/>
    </gui_only>

</configuration>
-->

<routes xmlns:xsi="http://www.w3.org/2001/XMLSchema-instance" xsi:noNamespaceSchemaLocation="http://sumo.dlr.de/xsd/routes_file.xsd">
    <vehicle id="76" type="vecType" depart="18120.00" arrival="19566.00">
        <routeDistribution>
            <route replacedOnEdge="-25371463" replacedOnIndex="14" reason="traci:changeTarget" replacedAtTime="18302.00" probability="0" edges="225806031#0 -8918039#0 8922072#0 8922072#1 8918033#0 8918033#1 8918033#2 89624695#0 89624695#2 89624695#3 27029263 -24335439#2 8917500#1 8921849#1 -25371463"/>
            <route edges="225806031#0 -8918039#0 8922072#0 8922072#1 8918033#0 8918033#1 8918033#2 89624695#0 89624695#2 89624695#3 27029263 -24335439#2 8917500#1 8921849#1 -25371463 25371463 47170567#0 24335439#1 24335439#2 -27029263 -88572874#2 -88572874#1 -88572874#0 88572943#0 88572943#1 8920338 225847523 -225853134 -8922072#1 -8922072#0 8918039#0 8918039#1 254448252#1 gneE13 225806031#0"/>
        </routeDistribution>
        <stop parkingArea="parkingArea_-25371463_0_928" duration="946.00" parking="1"/>
    </vehicle>

    <vehicle id="77" type="vecType" depart="18120.00" arrival="19921.00">
        <routeDistribution>
            <route replacedOnEdge="91181771#0" replacedOnIndex="8" reason="traci:changeTarget" replacedAtTime="18377.00" probability="0" edges="90077241 8921938 110361656 111319423 27397919 179235243#1 364480068#1 47172745 91181771#0"/>
            <route edges="90077241 8921938 110361656 111319423 27397919 179235243#1 364480068#1 47172745 91181771#0 88559691#4 225518502#0 329607867 27772070 202317709 50690291#0 50690291#1 gneE4 90077241"/>
        </routeDistribution>
        <stop parkingArea="parkingArea_91181771#0_0_77" duration="1190.00" parking="1"/>
    </vehicle>

    <vehicle id="85" type="vecType" depart="18126.00" arrival="19965.00">
        <routeDistribution>
            <route replacedOnEdge="242896157#1" replacedOnIndex="10" reason="traci:changeTarget" replacedAtTime="18390.00" probability="0" edges="90077241 8921938 110361656 111319423 27397919 179235241 -364480069 99231460 99231482 27397691 242896157#1"/>
            <route edges="90077241 8921938 110361656 111319423 27397919 179235241 -364480069 99231460 99231482 27397691 242896157#1 88463829#0 88466055#0 88466055#1 99231468#0 35675861#0 35675861#1 8915351 50690291#0 50690291#1 gneE4 90077241"/>
        </routeDistribution>
        <stop parkingArea="parkingArea_242896157#1_0_435" duration="1124.00" parking="1"/>
    </vehicle>

    <vehicle id="24" type="vecType" depart="18003.00" arrival="20029.00">
        <routeDistribution>
            <route replacedOnEdge="254299142#7" replacedOnIndex="13" reason="traci:setRoute" replacedAtTime="18466.00" probability="0" edges="123867455 8920391#0 255330048 255351721#0 -27656675 26943623 133735130#0 133735130#2 133735130#4 254299142#0 254299142#1 254299142#2 254299142#3 254299142#7 p4#0"/>
            <route replacedOnEdge="-p4#0" replacedOnIndex="15" reason="traci:changeTarget" replacedAtTime="18509.00" probability="0" edges="123867455 8920391#0 255330048 255351721#0 -27656675 26943623 133735130#0 133735130#2 133735130#4 254299142#0 254299142#1 254299142#2 254299142#3 254299142#7 p4#0 -p4#0"/>
            <route edges="123867455 8920391#0 255330048 255351721#0 -27656675 26943623 133735130#0 133735130#2 133735130#4 254299142#0 254299142#1 254299142#2 254299142#3 254299142#7 p4#0 -p4#0 254299142#9 91181771#6 283534317#2 283534317#5 283534317#6 283534317#8 143617591 107674371#0 107674371#1 107674372#0 255330069#0 255330069#1 26943653#0 255330047#0 30454437 gneE21 123867455"/>
        </routeDistribution>
        <stop parkingArea="parkingArea_-p4#0_0_102" duration="1165.00" parking="1"/>
    </vehicle>

    <vehicle id="71" type="vecType" depart="18120.00" arrival="20060.00">
        <routeDistribution>
            <route replacedOnEdge="175354957#1" replacedOnIndex="14" reason="traci:setRoute" replacedAtTime="18404.00" probability="0" edges="52432938#0 52432938#1 255351721#0 -27656675 26943623 133735130#0 255330036#7 -8919615#1 -8919615#0 8916553#1 -8916551 -88559680#2 88559650 175354957#0 175354957#1 50690291#1"/>
            <route replacedOnEdge="-35675861#0" replacedOnIndex="21" reason="traci:changeTarget" replacedAtTime="18691.00" probability="0" edges="52432938#0 52432938#1 255351721#0 -27656675 26943623 133735130#0 255330036#7 -8919615#1 -8919615#0 8916553#1 -8916551 -88559680#2 88559650 175354957#0 175354957#1 50690291#1 gneE4 90077241 8921938 120813417 31129372 -35675861#0 -35675862 99231466 -175129396#1 -43100046 8917778 174822357#0 255330036#13"/>
            <route edges="52432938#0 52432938#1 255351721#0 -27656675 26943623 133735130#0 255330036#7 -8919615#1 -8919615#0 8916553#1 -8916551 -88559680#2 88559650 175354957#0 175354957#1 50690291#1 gneE4 90077241 8921938 120813417 31129372 -35675861#0 35675861#0 35675861#1 283537552#0 283537552#1 283537644#0 283537644#2 88559661#0 88559661#1 88559680#0 88559680#3 88559680#5 224384059#0 8920394#1 27145438#0 52432939 255330070#0 255330070#3 52432938#0"/>
        </routeDistribution>
        <stop parkingArea="parkingArea_-35675861#0_0_462" duration="1046.00" parking="1"/>
    </vehicle>

    <vehicle id="191" type="vecType" depart="18663.00" arrival="20299.00">
        <routeDistribution>
            <route replacedOnEdge="27397692" replacedOnIndex="27" reason="traci:changeTarget" replacedAtTime="19035.00" probability="0" edges="8915254 186400366#2 186400366#5 186400366#6 186400366#7 186400366#8 186400366#9 186400366#12 186400366#13 254299118#0 254299118#1 254299118#2 254299118#3 254308548#0 254308548#2 186400365 143666207#0 254299117#0 254299117#1 -88559661#2 28842183 -283537644#1 -283537552#1 -283537552#0 -35675861#1 -35675861#0 -35675862 27397692"/>
            <route edges="8915254 186400366#2 186400366#5 186400366#6 186400366#7 186400366#8 186400366#9 186400366#12 186400366#13 254299118#0 254299118#1 254299118#2 254299118#3 254308548#0 254308548#2 186400365 143666207#0 254299117#0 254299117#1 -88559661#2 28842183 -283537644#1 -283537552#1 -283537552#0 -35675861#1 -35675861#0 -35675862 27397692 -202485361#1 -99231486 364480601#0 283537380#0 283537380#1 283537380#2 283537552#0 283537552#1 283537644#0 283537644#2 88559702#0 88559702#1 88559702#2 25758528#0 25758528#1 8915151 31129732#1 26779355 8915704#0 8915704#1 254299121#6 254299121#8 8919947#0 8919947#1 gneE16 8915254"/>
        </routeDistribution>
        <stop parkingArea="parkingArea_27397692_0_57" duration="901.00" parking="1"/>
    </vehicle>

    <vehicle id="95" type="vecType" depart="18180.00" arrival="20323.00">
        <routeDistribution>
            <route replacedOnEdge="228186482#0" replacedOnIndex="26" reason="traci:changeTarget" replacedAtTime="18767.00" probability="0" edges="123867455 8920391#0 255330048 255351721#0 -27656675 26943623 133735130#0 255330036#7 -8919615#1 -8919615#0 8916553#1 -8916551 -88559680#2 -88559661#2 28842183 -283537644#1 -283537552#1 -283537552#0 -35675861#1 8922307 364480069 364480068#0 364480068#1 364480068#2 88572881#0 305585433 228186482#0"/>
            <route edges="123867455 8920391#0 255330048 255351721#0 -27656675 26943623 133735130#0 255330036#7 -8919615#1 -8919615#0 8916553#1 -8916551 -88559680#2 -88559661#2 28842183 -283537644#1 -283537552#1 -283537552#0 -35675861#1 8922307 364480069 364480068#0 364480068#1 364480068#2 88572881#0 305585433 228186482#0 204884378#0 -204884378#1 8919020#0 88572905 91181771#0 88559691#4 225518512#0 88559661#0 88559661#1 88559680#0 88559680#3 88559680#5 224384059#0 8920394#1 27145438#0 255330047#0 30454437 gneE21 123867455"/>
        </routeDistribution>
        <stop parkingArea="parkingArea_228186482#0_0_71" duration="1053.00" parking="1"/>
    </vehicle>

    <vehicle id="105" type="vecType" depart="18183.00" arrival="20360.00">
        <routeDistribution>
            <route replacedOnEdge="91181771#3" replacedOnIndex="23" reason="traci:changeTarget" replacedAtTime="18729.00" probability="0" edges="8915254 256787755#0 256787755#2 256787755#3 25657409#4 25657409#5 25657409#7 25657409#9 25657409#10 25657409#11 25657409#12 25657409#13 25657409#14 25657409#15 25657409#16 25657409#17 25657409#18 25657409#19 255168047#0 255168047#3 255168046#0 255168046#2 -88559691#6 91181771#3"/>
            <route edges="8915254 256787755#0 256787755#2 256787755#3 25657409#4 25657409#5 25657409#7 25657409#9 25657409#10 25657409#11 25657409#12 25657409#13 25657409#14 25657409#15 25657409#16 25657409#17 25657409#18 25657409#19 255168047#0 255168047#3 255168046#0 255168046#2 -88559691#6 91181771#3 91181771#4 91181771#5 91181771#6 283534317#2 283534317#5 283534317#6 283534317#8 8915151 31129732#1 26779355 8915704#0 8915704#1 254299121#6 254299121#8 8919947#0 8919947#1 gneE16 8915254"/>
        </routeDistribution>
        <stop parkingArea="parkingArea_91181771#3_3_519" duration="1349.00" parking="1"/>
    </vehicle>

    <vehicle id="59" type="vecType" depart="18063.00" arrival="20382.00">
        <routeDistribution>
            <route replacedOnEdge="255330056#0" replacedOnIndex="31" reason="traci:setRoute" replacedAtTime="18544.00" probability="0" edges="-27029200#2 -27029200#1 -25758513 27029265#3 186400366#0 186400366#1 186400366#2 186400366#5 186400366#6 186400366#7 186400366#8 186400366#9 186400366#12 186400366#13 254299118#0 254299118#1 254299118#2 254299118#3 254308548#0 254308548#2 186400365 143666207#0 254299117#0 254299117#1 88559650 26944075#0 26944075#1 179235223 175129396#0 255330038#0 255330038#2 255330056#0 88466052#0"/>
            <route replacedOnEdge="-242896157#3" replacedOnIndex="34" reason="traci:changeTarget" replacedAtTime="18574.00" probability="0" edges="-27029200#2 -27029200#1 -25758513 27029265#3 186400366#0 186400366#1 186400366#2 186400366#5 186400366#6 186400366#7 186400366#8 186400366#9 186400366#12 186400366#13 254299118#0 254299118#1 254299118#2 254299118#3 254308548#0 254308548#2 186400365 143666207#0 254299117#0 254299117#1 88559650 26944075#0 26944075#1 179235223 175129396#0 255330038#0 255330038#2 255330056#0 88466052#0 -88463830 -242896157#3 120256350#8"/>
            <route edges="-27029200#2 -27029200#1 -25758513 27029265#3 186400366#0 186400366#1 186400366#2 186400366#5 186400366#6 186400366#7 186400366#8 186400366#9 186400366#12 186400366#13 254299118#0 254299118#1 254299118#2 254299118#3 254308548#0 254308548#2 186400365 143666207#0 254299117#0 254299117#1 88559650 26944075#0 26944075#1 179235223 175129396#0 255330038#0 255330038#2 255330056#0 88466052#0 -88463830 -242896157#3 -242896157#0 -202485361#1 -99231486 364480601#0 283537380#0 283537380#1 283537380#2 283537552#0 283537552#1 283537644#0 283537644#2 88559702#0 88559702#1 88559702#2 25758528#0 25758528#1 8915151 31129732#1 26779355 8915704#0 8915704#1 254299121#6 254299121#8 254299121#9 25758513 27029200#0 27029200#2 -27029200#2"/>
        </routeDistribution>
        <stop parkingArea="parkingArea_-242896157#3_0_434" duration="1486.00" parking="1"/>
    </vehicle>

    <vehicle id="50" type="vecType" depart="18060.00" arrival="20431.00">
        <routeDistribution>
            <route replacedOnEdge="27054213#4" replacedOnIndex="16" reason="traci:changeTarget" replacedAtTime="18638.00" probability="0" edges="254396707#6 254396707#7 254396707#8 254758115#0 254758115#2 254758114#0 254758114#1 254758114#2 286003244#1 286003244#6 29023741#0 29023741#1 -287958606#3 -287958606#1 -254396709#1 -254466686#4 27054213#4"/>
            <route edges="254396707#6 254396707#7 254396707#8 254758115#0 254758115#2 254758114#0 254758114#1 254758114#2 286003244#1 286003244#6 29023741#0 29023741#1 -287958606#3 -287958606#1 -254396709#1 -254466686#4 27054213#4 88597553#2 254971067#0 254466695#0 254466695#2 254466695#3 329596844#1 329596844#2 100400947#1 100400947#2 100400947#4 100400947#5 100400947#6 100400947#7 100400947#9 100400947#10 100400947#11 gneE9 254396707#6"/>
        </routeDistribution>
        <stop parkingArea="parkingArea_27054213#4_0_345" duration="1440.00" parking="1"/>
    </vehicle>

    <vehicle id="150" type="vecType" depart="18480.00" arrival="20499.00">
        <routeDistribution>
            <route replacedOnEdge="8916551" replacedOnIndex="23" reason="traci:setRoute" replacedAtTime="18915.00" probability="0" edges="144489137#0 144489137#1 144489137#2 144489137#3 144489137#7 254758131#0 254758131#2 254758132#0 254758132#2 290052332#1 290052332#4 -144489136 -204884397 -228196396 -204884387#2 -224384019#1 88597577#0 88559691#0 88559691#4 225518512#0 88559661#0 88559661#1 88559680#0 8916551 -8916551"/>
            <route replacedOnEdge="88559702#0" replacedOnIndex="28" reason="traci:changeTarget" replacedAtTime="18958.00" probability="0" edges="144489137#0 144489137#1 144489137#2 144489137#3 144489137#7 254758131#0 254758131#2 254758132#0 254758132#2 290052332#1 290052332#4 -144489136 -204884397 -228196396 -204884387#2 -224384019#1 88597577#0 88559691#0 88559691#4 225518512#0 88559661#0 88559661#1 88559680#0 8916551 -8916551 -88559680#2 -88559661#2 -88559661#0 88559702#0 88559702#1"/>
            <route edges="144489137#0 144489137#1 144489137#2 144489137#3 144489137#7 254758131#0 254758131#2 254758132#0 254758132#2 290052332#1 290052332#4 -144489136 -204884397 -228196396 -204884387#2 -224384019#1 88597577#0 88559691#0 88559691#4 225518512#0 88559661#0 88559661#1 88559680#0 8916551 -8916551 -88559680#2 -88559661#2 -88559661#0 88559702#0 88559702#1 88559702#2 254299142#3 254299142#7 254299142#9 254299142#11 111552058#0 88597544#0 144489134#2 144489134#3 290080809#0 290080809#4 84734271#1 84734271#2 84734271#3 84734271#5 84734271#6 84734271#7 91181767 gneE12 144489137#0"/>
        </routeDistribution>
        <stop parkingArea="parkingArea_88559702#0_0_454" duration="1075.00" parking="1"/>
    </vehicle>

    <vehicle id="21" type="vecType" depart="18000.00" arrival="20602.00">
        <routeDistribution>
            <route replacedOnEdge="35675861#1" replacedOnIndex="21" reason="traci:changeTarget" replacedAtTime="18325.00" probability="0" edges="27167762 123741465 8915117 8915115#0 8915115#1 254299118#0 254299118#1 254299118#2 254299118#3 254308548#0 254308548#2 186400365 143666207#0 254299117#0 254299117#1 -88559661#2 28842183 -283537644#1 -283537552#1 -283537552#0 -35675861#1 35675861#1"/>
            <route edges="27167762 123741465 8915117 8915115#0 8915115#1 254299118#0 254299118#1 254299118#2 254299118#3 254308548#0 254308548#2 186400365 143666207#0 254299117#0 254299117#1 -88559661#2 28842183 -283537644#1 -283537552#1 -283537552#0 -35675861#1 35675861#1 283537552#0 283537552#1 283537644#0 283537644#2 88559702#0 88559702#1 88559702#2 25758528#0 25758528#1 8915151 31129732#1 31129732#2 254299122 8915263 gneE20 27167762"/>
        </routeDistribution>
        <stop parkingArea="parkingArea_35675861#1_0_461" duration="2024.00" parking="1"/>
    </vehicle>

    <vehicle id="107" type="vecType" depart="18180.00" arrival="20739.00">
        <routeDistribution>
            <route replacedOnEdge="111319423" replacedOnIndex="43" reason="traci:changeTarget" replacedAtTime="18967.00" probability="0" edges="-206662304#13 -206662304#12 -206662304#11 -206662304#10 -206662304#8 -206662304#6 -206662304#4 -206662304#1 -254756527 148846996#1 148846996#2 -48211487#2 -48211487#1 -48211487#0 48211960 87376672#0 87376672#1 -91185877#1 -91185877#0 -254971056#1 -8922640#1 27054205#0 27054205#1 27054209#0 -254756526#1 -254396719#1 -254466686#4 27054213#4 27054213#6 91181774#0 8919020#0 88572905 91181770#0 283537380#0 283537380#1 283537380#2 8915351 50690291#0 50690291#1 gneE4 90077241 8921938 110361656 111319423"/>
            <route edges="-206662304#13 -206662304#12 -206662304#11 -206662304#10 -206662304#8 -206662304#6 -206662304#4 -206662304#1 -254756527 148846996#1 148846996#2 -48211487#2 -48211487#1 -48211487#0 48211960 87376672#0 87376672#1 -91185877#1 -91185877#0 -254971056#1 -8922640#1 27054205#0 27054205#1 27054209#0 -254756526#1 -254396719#1 -254466686#4 27054213#4 27054213#6 91181774#0 8919020#0 88572905 91181770#0 283537380#0 283537380#1 283537380#2 8915351 50690291#0 50690291#1 gneE4 90077241 8921938 110361656 111319423 27397919 179235243#1 364480068#1 364480068#2 88572881#0 88572881#3 88597575#0 88597575#1 254466686#2 254466686#3 254466686#4 254396719#0 254756526#0 254971069#0 27054195#0 8922640#0 254971056#0 91185877#0 91185877#1 30030101#0 30030101#1 87376669 48211487#0 48211487#1 48211487#2 48211828 254756518 148874366 254756527 206662304#0 206662304#4 206662304#5 206662304#7 206662304#9 206662304#11 206662304#12 206662304#13 -206662304#13"/>
        </routeDistribution>
        <stop parkingArea="parkingArea_111319423_0_83" duration="1204.00" parking="1"/>
    </vehicle>

    <vehicle id="210" type="vecType" depart="18960.00" arrival="20797.00">
        <routeDistribution>
            <route replacedOnEdge="8916922#0" replacedOnIndex="11" reason="traci:setRoute" replacedAtTime="19355.00" probability="0" edges="-160313263#1 52432938#0 52432938#1 255351721#0 27041554#0 27041554#1 8922234#0 8922234#2 255330056#0 88466052#0 88466052#1 8916922#0 -8916922#0"/>
            <route replacedOnEdge="-8916922#4" replacedOnIndex="16" reason="traci:changeTarget" replacedAtTime="19469.00" probability="0" edges="-160313263#1 52432938#0 52432938#1 255351721#0 27041554#0 27041554#1 8922234#0 8922234#2 255330056#0 88466052#0 88466052#1 8916922#0 -8916922#0 8916922#0 8916922#1 8916922#3 -8916922#4"/>
            <route edges="-160313263#1 52432938#0 52432938#1 255351721#0 27041554#0 27041554#1 8922234#0 8922234#2 255330056#0 88466052#0 88466052#1 8916922#0 -8916922#0 8916922#0 8916922#1 8916922#3 -8916922#4 -8916922#2 24335490#0 88463829#0 8918793#0 8918793#3 255330057#0 8920394#0 8920394#1 27145438#0 52432939 255330070#0 255330070#3 52432936#0 -160313263#1"/>
        </routeDistribution>
        <stop parkingArea="parkingArea_-8916922#4_0_52" duration="930.00" parking="1"/>
    </vehicle>

    <vehicle id="41" type="vecType" depart="18003.00" arrival="20864.00">
        <routeDistribution>
            <route replacedOnEdge="88597553#2" replacedOnIndex="23" reason="traci:changeTarget" replacedAtTime="18458.00" probability="0" edges="144489137#0 144489137#1 144489137#2 144489137#3 144489137#7 254758131#0 254758131#2 254758132#0 254758132#2 290052332#1 290052332#4 -144489136 -204884397 -228196396 -204884387#2 -224384019#1 -224384018 -225719777#1 -204884378#1 -228186482#1 -202317711 88597553#0 88597553#1 88597553#2"/>
            <route edges="144489137#0 144489137#1 144489137#2 144489137#3 144489137#7 254758131#0 254758131#2 254758132#0 254758132#2 290052332#1 290052332#4 -144489136 -204884397 -228196396 -204884387#2 -224384019#1 -224384018 -225719777#1 -204884378#1 -228186482#1 -202317711 88597553#0 88597553#1 88597553#2 -224316527 -8920734 133733593#0 287958607#4 133733590#0 204884387#0 144489134#0 144489134#2 144489134#3 290080809#0 290080809#4 84734271#1 84734271#2 84734271#3 84734271#5 84734271#6 84734271#7 91181767 gneE12 144489137#0"/>
        </routeDistribution>
        <stop parkingArea="parkingArea_88597553#2_0_369" duration="1905.00" parking="1"/>
    </vehicle>

    <vehicle id="161" type="vecType" depart="18540.00" arrival="20929.00">
        <routeDistribution>
            <route replacedOnEdge="120256350#8" replacedOnIndex="30" reason="traci:changeTarget" replacedAtTime="19095.00" probability="0" edges="-27029204 27029246 25657409#0 25657409#2 25657409#3 25657409#4 25657409#5 25657409#7 25657409#9 25657409#10 25657409#11 25657409#12 25657409#13 25657409#14 25657409#15 25657409#16 25657409#17 25657409#18 25657409#19 255168047#0 255168047#3 255168046#0 255168046#2 225518502#0 225518502#2 225518502#3 111049100#0 99231460 99231482 27397691 120256350#8"/>
            <route edges="-27029204 27029246 25657409#0 25657409#2 25657409#3 25657409#4 25657409#5 25657409#7 25657409#9 25657409#10 25657409#11 25657409#12 25657409#13 25657409#14 25657409#15 25657409#16 25657409#17 25657409#18 25657409#19 255168047#0 255168047#3 255168046#0 255168046#2 225518502#0 225518502#2 225518502#3 111049100#0 99231460 99231482 27397691 120256350#8 88466055#1 99231468#0 35675861#0 35675861#1 283537552#0 283537552#1 283537644#0 283537644#2 88559702#0 88559702#1 88559702#2 25758528#0 25758528#1 8915151 31129732#1 26779355 8915704#0 8915704#1 254299121#6 254299121#8 254299121#9 25758513 27029204 -27029204"/>
        </routeDistribution>
        <stop parkingArea="parkingArea_120256350#8_0_45" duration="1451.00" parking="1"/>
    </vehicle>

    <vehicle id="182" type="vecType" depart="18600.00" arrival="20937.00">
        <routeDistribution>
            <route replacedOnEdge="283537380#2" replacedOnIndex="40" reason="traci:setRoute" replacedAtTime="19154.00" probability="0" edges="8916767#0 8916767#1 146155388 -254758127#15 -48211062#11 -48211062#10 -48211062#9 -30029708#2 -30029708#1 -30029708#0 30030100#0 30030100#2 148846995 148846996#0 148846996#1 148846996#2 -48211487#2 -48211487#1 -48211487#0 48211960 87376672#0 87376672#1 -91185877#1 -91185877#0 -254971056#1 -8922640#1 27054205#0 27054205#1 27054209#0 -254756526#1 -254396719#1 -254466686#4 27054213#4 27054213#6 91181774#0 8919020#0 88572905 91181770#0 283537380#0 283537380#1 283537380#2 283537552#0"/>
            <route replacedOnEdge="283537552#1" replacedOnIndex="42" reason="traci:changeTarget" replacedAtTime="19167.00" probability="0" edges="8916767#0 8916767#1 146155388 -254758127#15 -48211062#11 -48211062#10 -48211062#9 -30029708#2 -30029708#1 -30029708#0 30030100#0 30030100#2 148846995 148846996#0 148846996#1 148846996#2 -48211487#2 -48211487#1 -48211487#0 48211960 87376672#0 87376672#1 -91185877#1 -91185877#0 -254971056#1 -8922640#1 27054205#0 27054205#1 27054209#0 -254756526#1 -254396719#1 -254466686#4 27054213#4 27054213#6 91181774#0 8919020#0 88572905 91181770#0 283537380#0 283537380#1 283537380#2 283537552#0 283537552#1 283537644#0 283537644#2 88559702#0 88559702#1"/>
            <route edges="8916767#0 8916767#1 146155388 -254758127#15 -48211062#11 -48211062#10 -48211062#9 -30029708#2 -30029708#1 -30029708#0 30030100#0 30030100#2 148846995 148846996#0 148846996#1 148846996#2 -48211487#2 -48211487#1 -48211487#0 48211960 87376672#0 87376672#1 -91185877#1 -91185877#0 -254971056#1 -8922640#1 27054205#0 27054205#1 27054209#0 -254756526#1 -254396719#1 -254466686#4 27054213#4 27054213#6 91181774#0 8919020#0 88572905 91181770#0 283537380#0 283537380#1 283537380#2 283537552#0 283537552#1 -283537552#1 -283537552#0 -35675861#1 8922307 364480069 364480068#0 364480068#1 364480068#2 88572881#0 88572881#3 88597575#0 88597575#1 254466686#2 254466686#3 254466686#4 254396719#0 254756526#0 254971069#0 27054195#0 8922640#0 254971056#0 91185877#0 91185877#1 30030101#0 30030101#1 87376669 48211487#0 48211487#1 48211487#2 48211828 254756518 148874363#0 148874364#0 148874364#1 148874364#3 30029708#0 30029708#1 30029708#2 48211062#9 48211062#10 48211062#11 254758127#15 -146155388 -8916767#1 -8916767#0 8916767#0"/>
        </routeDistribution>
        <stop parkingArea="parkingArea_283537552#1_0_458" duration="1020.00" parking="1"/>
    </vehicle>

    <vehicle id="124" type="vecType" depart="18240.00" arrival="20954.00">
        <routeDistribution>
            <route replacedOnEdge="283537380#2" replacedOnIndex="20" reason="traci:setRoute" replacedAtTime="18982.00" probability="0" edges="254396707#6 254396707#7 254396707#8 254758115#0 254758115#2 254758114#0 254758114#1 254758114#2 286003244#1 286003244#6 286003244#9 224316514#0 254306572#0 224316513#0 91181774#0 8919020#0 88572905 91181770#0 283537380#0 283537380#1 283537380#2 283537552#0"/>
            <route replacedOnEdge="283537552#1" replacedOnIndex="22" reason="traci:changeTarget" replacedAtTime="18994.00" probability="0" edges="254396707#6 254396707#7 254396707#8 254758115#0 254758115#2 254758114#0 254758114#1 254758114#2 286003244#1 286003244#6 286003244#9 224316514#0 254306572#0 224316513#0 91181774#0 8919020#0 88572905 91181770#0 283537380#0 283537380#1 283537380#2 283537552#0 283537552#1 283537644#0 283537644#2 88559702#0 88559702#1"/>
            <route edges="254396707#6 254396707#7 254396707#8 254758115#0 254758115#2 254758114#0 254758114#1 254758114#2 286003244#1 286003244#6 286003244#9 224316514#0 254306572#0 224316513#0 91181774#0 8919020#0 88572905 91181770#0 283537380#0 283537380#1 283537380#2 283537552#0 283537552#1 -283537552#1 -283537552#0 -35675861#1 8922307 364480069 364480068#0 364480068#1 364480068#2 88572881#0 88572881#3 88597575#0 88597553#1 88597553#2 254971067#0 254466695#0 254466695#2 254466695#3 329596844#1 329596844#2 100400947#1 100400947#2 100400947#4 100400947#5 100400947#6 100400947#7 100400947#9 100400947#10 100400947#11 gneE9 254396707#6"/>
        </routeDistribution>
        <stop parkingArea="parkingArea_283537552#1_0_458" duration="1304.00" parking="1"/>
    </vehicle>

    <vehicle id="25" type="vecType" depart="18003.00" arrival="21027.00">
        <routeDistribution>
            <route replacedOnEdge="-99231466" replacedOnIndex="19" reason="traci:setRoute" replacedAtTime="18434.00" probability="0" edges="-23883761 28518571#1 133755923#0 133755923#1 143617587 -143617589#6 -143617589#2 -143617589#1 -111550911#3 -111550911#2 -111550911#1 -111550911#0 -111550910#2 -111550910#1 -111550910#0 8922234#0 8922234#2 -255330038#2 -255330038#1 -99231466 99231468#0"/>
            <route replacedOnEdge="8918460#0" replacedOnIndex="23" reason="traci:changeTarget" replacedAtTime="18517.00" probability="0" edges="-23883761 28518571#1 133755923#0 133755923#1 143617587 -143617589#6 -143617589#2 -143617589#1 -111550911#3 -111550911#2 -111550911#1 -111550911#0 -111550910#2 -111550910#1 -111550910#0 8922234#0 8922234#2 -255330038#2 -255330038#1 -99231466 99231468#0 -35675862 27397692 8918460#0"/>
            <route edges="-23883761 28518571#1 133755923#0 133755923#1 143617587 -143617589#6 -143617589#2 -143617589#1 -111550911#3 -111550911#2 -111550911#1 -111550911#0 -111550910#2 -111550910#1 -111550910#0 8922234#0 8922234#2 -255330038#2 -255330038#1 -99231466 99231468#0 -35675862 27397692 8918460#0 -254971064#1 120256350#3 -242896157#0 -27397692 99231466 255330038#0 8918793#3 255330057#0 111550910#1 111550910#2 111550911#0 111550911#1 111550911#2 111550911#3 143617589#0 143617589#2 143617589#3 -143617587 -133755923#1 -133755923#0 -28518571#1 23883761 -23883761"/>
        </routeDistribution>
        <stop parkingArea="parkingArea_8918460#0_0_56" duration="1726.00" parking="1"/>
    </vehicle>

    <vehicle id="288" type="vecType" depart="19623.00" arrival="21073.00">
        <routeDistribution>
            <route replacedOnEdge="99231466" replacedOnIndex="6" reason="traci:changeTarget" replacedAtTime="19807.00" probability="0" edges="90077241 8921938 120813417 31129372 -35675861#0 -35675862 99231466"/>
            <route edges="90077241 8921938 120813417 31129372 -35675861#0 -35675862 99231466 -99231466 99231468#0 35675861#0 35675861#1 8915351 50690291#0 50690291#1 gneE4 90077241"/>
        </routeDistribution>
        <stop parkingArea="parkingArea_99231466_0_391" duration="959.00" parking="1"/>
    </vehicle>

    <vehicle id="164" type="vecType" depart="18540.00" arrival="21081.00">
        <routeDistribution>
            <route replacedOnEdge="-8916922#0" replacedOnIndex="43" reason="traci:setRoute" replacedAtTime="18896.00" probability="0" edges="8916767#0 8916767#1 146155388 -254758127#15 -48211062#11 -48211062#10 -48211062#9 -30029708#2 -30029708#1 -30029708#0 30030100#0 30030100#2 148846995 148846996#0 148846996#1 148846996#2 -48211487#2 -48211487#1 -48211487#0 48211960 87376672#0 87376672#1 -91185877#1 -91185877#0 -254971056#1 8919205#17 8919205#18 8919205#21 8919205#24 47108420#0 47108420#3 47108420#4 28843496 30758839#0 30758839#1 8922560#0 8922560#1 8922560#3 8922560#4 283512618#0 283512618#3 283512618#5 88463827#0 -8916922#0 8916922#0"/>