<?xml version="1.0" encoding="UTF-8"?>

<!-- generated on 2023-01-10 07:31:58 by Eclipse SUMO sumo Version 1.14.1
<configuration xmlns:xsi="http://www.w3.org/2001/XMLSchema-instance" xsi:noNamespaceSchemaLocation="http://sumo.dlr.de/xsd/sumoConfiguration.xsd">

    <input>
        <net-file value="./strategia2_config/../san_francisco.net.xml"/>
        <route-files value="./strategia2_config/../san_francisco.rou.xml"/>
        <additional-files value="./strategia2_config/../san_francisco.poly.xml,./strategia2_config/../parking_capacity_100%25/off_parking_100%25.add.xml,./strategia2_config/../parking_capacity_100%25/on_parking_100%25.add.xml"/>
    </input>

    <output>
        <emission-output value="./strategia2_config/../output/strategia2/100%25/emissions.xml"/>
        <tripinfo-output value="./strategia2_config/../output/strategia2/100%25/tripinfo.xml"/>
        <vehroute-output value="./strategia2_config/../output/strategia2/100%25/vehroute.xml"/>
        <stop-output value="./strategia2_config/../output/strategia2/100%25/stops.xml"/>
        <collision-output value="./strategia2_config/../output/strategia2/100%25/collision.xml"/>
        <statistic-output value="./strategia2_config/../output/strategia2/100%25/statistic.xml"/>
    </output>

    <time>
        <step-length value="1"/>
    </time>

    <processing>
        <ignore-route-errors value="false"/>
    </processing>

    <report>
        <verbose value="true"/>
        <xml-validation value="never"/>
    </report>

    <traci_server>
        <remote-port value="49870"/>
    </traci_server>

    <gui_only>
        <gui-settings-file value="./strategia2_config/../gui-settings.cfg"/>
        <start value="true"/>
    </gui_only>

</configuration>
-->

<routes xmlns:xsi="http://www.w3.org/2001/XMLSchema-instance" xsi:noNamespaceSchemaLocation="http://sumo.dlr.de/xsd/routes_file.xsd">
    <vehicle id="6" type="vecType" depart="18000.00" arrival="20156.00">
        <routeDistribution>
            <route replacedOnEdge="8922307" replacedOnIndex="23" reason="traci:changeTarget" replacedAtTime="18512.00" probability="0" edges="225806031#0 225806031#2 254759928#0 254759928#1 254759928#2 254759928#3 254759927#0 254759927#1 111547662#0 88572901#0 264874017#0 25657409#17 25657409#18 25657409#19 255168047#0 255168047#3 255168046#0 255168046#2 225518502#0 329607867 -283537552#1 -283537552#0 -35675861#1 8922307"/>
            <route edges="225806031#0 225806031#2 254759928#0 254759928#1 254759928#2 254759928#3 254759927#0 254759927#1 111547662#0 88572901#0 264874017#0 25657409#17 25657409#18 25657409#19 255168047#0 255168047#3 255168046#0 255168046#2 225518502#0 329607867 -283537552#1 -283537552#0 -35675861#1 8922307 364480069 364480068#0 364480068#1 364480068#2 88572881#0 305585433 228186482#0 204884378#0 225719777#0 224200967 224384019#0 204884387#0 228196396 204884397 228201785#0 228201785#1 225806043 225806042#0 8922164#0 8922164#1 8922164#2 8922164#3 8922164#4 8922164#5 8922164#6 254448252#0 254448252#1 gneE13 225806031#0"/>
        </routeDistribution>
        <stop parkingArea="parkingArea_8922307_0_62" duration="994.00" parking="1"/>
    </vehicle>

    <vehicle id="17" type="vecType" depart="18003.00" arrival="20323.00">
        <routeDistribution>
            <route replacedOnEdge="225518512#0" replacedOnIndex="24" reason="traci:changeTarget" replacedAtTime="18486.00" probability="0" edges="224384035#0 224384035#1 30029560#0 -25372932#4 27398045#5 27398045#6 27398045#7 8919058 8916882#0 -91181760#0 -100400946 -91181759#5 -28841115#2 -28841115#1 286003244#6 286003244#9 224316514#0 287958607#3 287958607#4 133733590#0 -224384019#1 88597577#0 88559691#0 88559691#4 225518512#0"/>
            <route edges="224384035#0 224384035#1 30029560#0 -25372932#4 27398045#5 27398045#6 27398045#7 8919058 8916882#0 -91181760#0 -100400946 -91181759#5 -28841115#2 -28841115#1 286003244#6 286003244#9 224316514#0 287958607#3 287958607#4 133733590#0 -224384019#1 88597577#0 88559691#0 88559691#4 225518512#0 -225518512#1 -88559691#6 -88559691#3 88559669 88572965#0 88572965#1 111552058#0 88597544#0 144489134#2 184956229#0 111586254#0 28841120#0 gneE25 28841115#0 28841115#2 91181759#2 100400946 91181760#0 91181760#1 27166421#1 254756525#19 254756525#20 254756525#23 -254758121#2 -254758121#0 -26938418#4 30035682#0 30035682#1 gneE7 224384035#0"/>
        </routeDistribution>
        <stop parkingArea="parkingArea_225518512#0_0_107" duration="1227.00" parking="1"/>
    </vehicle>

    <vehicle id="127" type="vecType" depart="18240.00" arrival="20466.00">
        <routeDistribution>
            <route replacedOnEdge="27054213#4" replacedOnIndex="30" reason="traci:changeTarget" replacedAtTime="18572.00" probability="0" edges="-204967525 -87297168 30029867#0 30029867#1 30029867#2 -30029708#2 -30029708#1 -30029708#0 30030100#0 30030100#2 148846995 148846996#0 148846996#1 148846996#2 -48211487#2 -48211487#1 -48211487#0 48211960 87376672#0 87376672#1 -91185877#1 -91185877#0 -254971056#1 -8922640#1 27054205#0 27054205#1 27054209#0 -254756526#1 -254396719#1 -254466686#4 27054213#4"/>
            <route edges="-204967525 -87297168 30029867#0 30029867#1 30029867#2 -30029708#2 -30029708#1 -30029708#0 30030100#0 30030100#2 148846995 148846996#0 148846996#1 148846996#2 -48211487#2 -48211487#1 -48211487#0 48211960 87376672#0 87376672#1 -91185877#1 -91185877#0 -254971056#1 -8922640#1 27054205#0 27054205#1 27054209#0 -254756526#1 -254396719#1 -254466686#4 27054213#4 88597553#2 254971068 254396719#0 254756526#0 254971069#0 27054195#0 8922640#0 254971056#0 91185877#0 91185877#1 30030101#0 30030101#1 87376669 48211487#0 48211487#1 48211487#2 48211828 254756518 148874363#0 148874364#0 148874364#1 148874364#3 30029708#0 30029708#1 30029708#2 30029866#0 30029866#2 30029866#3 87297168 204967525 -204967525"/>
        </routeDistribution>
        <stop parkingArea="parkingArea_27054213#4_0_345" duration="1388.00" parking="1"/>
    </vehicle>

    <vehicle id="60" type="vecType" depart="18060.00" arrival="20468.00">
        <routeDistribution>
            <route replacedOnEdge="247966218#3" replacedOnIndex="4" reason="traci:changeTarget" replacedAtTime="18165.00" probability="0" edges="8916792 28518571#0 28518571#1 157812260#0 247966218#3"/>
            <route edges="8916792 28518571#0 28518571#1 157812260#0 247966218#3 247966218#4 247966218#5 247966218#6 247966218#7 247966218#8 141688972#0 141688972#1 162931811#0 -7373736#0 7373728 -133755923#0 -28518571#1 -28518571#0 -8916792 8916792"/>
        </routeDistribution>
        <stop parkingArea="parkingArea_247966218#3_0_791" duration="2028.00" parking="1"/>
    </vehicle>

    <vehicle id="162" type="vecType" depart="18543.00" arrival="20547.00">
        <routeDistribution>
            <route replacedOnEdge="-225518512#1" replacedOnIndex="9" reason="traci:changeTarget" replacedAtTime="18819.00" probability="0" edges="90077241 8921938 120813417 31129372 35675861#1 283537552#0 283537552#1 283537644#0 283537644#2 -225518512#1"/>
            <route edges="90077241 8921938 120813417 31129372 35675861#1 283537552#0 283537552#1 283537644#0 283537644#2 -225518512#1 225518502#0 329607867 27772070 202317709 50690291#0 50690291#1 gneE4 90077241"/>
        </routeDistribution>
        <stop parkingArea="parkingArea_-225518512#1_0_517" duration="1379.00" parking="1"/>
    </vehicle>

    <vehicle id="138" type="vecType" depart="18420.00" arrival="20643.00">
        <routeDistribution>
            <route replacedOnEdge="120256350#3" replacedOnIndex="27" reason="traci:changeTarget" replacedAtTime="18927.00" probability="0" edges="-27570786#2 -27570786#1 -34128712 -34128471#1 -143666206 -30831816#3 -30831816#2 -30831816#1 -30831816#0 8922243#0 8922243#1 8922283#0 88142688#0 88142688#5 88142688#6 88142687#0 88142687#1 359898623#0 359898622#0 24335489#0 359898157#0 283512618#0 283512618#3 283512618#5 88463827#0 8916922#1 8916922#3 120256350#3"/>
            <route edges="-27570786#2 -27570786#1 -34128712 -34128471#1 -143666206 -30831816#3 -30831816#2 -30831816#1 -30831816#0 8922243#0 8922243#1 8922283#0 88142688#0 88142688#5 88142688#6 88142687#0 88142687#1 359898623#0 359898622#0 24335489#0 359898157#0 283512618#0 283512618#3 283512618#5 88463827#0 8916922#1 8916922#3 120256350#3 -242896157#0 8918460#0 99231463#0 224373751 28319343#0 8916375#0 8916375#1 254466686#0 254466686#1 254466686#2 254466686#3 254466686#4 254396719#0 254756526#0 254971069#0 27054195#0 8922640#0 254971056#0 91185877#0 91185877#1 30030101#0 30030101#1 87376669 48211487#0 48211487#1 48211487#2 48211828 254756518 148874363#0 148874364#0 148874364#1 148874364#3 30029708#0 30029708#1 30029708#2 30029866#0 30029866#2 88396403 -27570798#4 255168048#4 27054184#0 27570786#2 -27570786#2"/>
        </routeDistribution>
        <stop parkingArea="parkingArea_120256350#3_0_52" duration="1009.00" parking="1"/>
    </vehicle>

    <vehicle id="139" type="vecType" depart="18420.00" arrival="20652.00">
        <routeDistribution>
            <route replacedOnEdge="-254466686#4" replacedOnIndex="15" reason="traci:changeTarget" replacedAtTime="18865.00" probability="0" edges="90077241 8921938 110361656 111319423 27397919 179235243#1 364480068#1 364480068#2 88572881#0 88572881#3 88597575#0 88597575#1 254466686#2 254466686#3 254466686#4 -254466686#4"/>
            <route edges="90077241 8921938 110361656 111319423 27397919 179235243#1 364480068#1 364480068#2 88572881#0 88572881#3 88597575#0 88597575#1 254466686#2 254466686#3 254466686#4 -254466686#4 27054213#4 27054213#6 91181774#0 8919020#0 88572905 91181770#0 283537380#0 283537380#1 283537380#2 8915351 50690291#0 50690291#1 gneE4 90077241"/>
        </routeDistribution>
        <stop parkingArea="parkingArea_-254466686#4_0_360" duration="1228.00" parking="1"/>
    </vehicle>

    <vehicle id="140" type="vecType" depart="18420.00" arrival="20652.00">
        <routeDistribution>
            <route replacedOnEdge="286003244#9" replacedOnIndex="23" reason="traci:changeTarget" replacedAtTime="18685.00" probability="0" edges="-35977367#2 87297164#7 87297164#8 26938417 26938418#0 26938418#1 26938418#2 -24335483#8 -24335483#6 -24335483#5 -27166421#8 -27166421#7 -27166421#6 -27166421#5 27398045#7 8919058 8916882#0 -91181760#0 -100400946 -91181759#5 -28841115#2 -28841115#1 286003244#6 286003244#9"/>
            <route edges="-35977367#2 87297164#7 87297164#8 26938417 26938418#0 26938418#1 26938418#2 -24335483#8 -24335483#6 -24335483#5 -27166421#8 -27166421#7 -27166421#6 -27166421#5 27398045#7 8919058 8916882#0 -91181760#0 -100400946 -91181759#5 -28841115#2 -28841115#1 286003244#6 286003244#9 224316521#0 224316521#1 224316521#3 224316521#4 91182062#0 91182062#1 91182062#2 91182062#3 91185877#0 224384020#6 224384020#8 -24335485#3 24335483#1 24335483#4 -288065247#0 8920093#1 254758127#0 72981813#3 26938338#0 -87297164#7 35977367#2 -35977367#2"/>
        </routeDistribution>
        <stop parkingArea="parkingArea_286003244#9_0_598" duration="1663.00" parking="1"/>
    </vehicle>

    <vehicle id="98" type="vecType" depart="18180.00" arrival="20664.00">
        <routeDistribution>
            <route replacedOnEdge="283537380#2" replacedOnIndex="43" reason="traci:setRoute" replacedAtTime="18802.00" probability="0" edges="-254297762#2 -254297762#0 -255168048#4 -255168048#3 34128718#1 -254299113#2 143666209#2 143666209#3 143666209#4 143666209#6 91185870#0 91185870#1 -30029708#0 30030100#0 30030100#2 148846995 148846996#0 148846996#1 148846996#2 -48211487#2 -48211487#1 -48211487#0 48211960 87376672#0 87376672#1 -91185877#1 -91185877#0 -254971056#1 -8922640#1 27054205#0 27054205#1 27054209#0 -254756526#1 -254396719#1 -254466686#4 27054213#4 27054213#6 91181774#0 8919020#0 88572905 91181770#0 283537380#0 283537380#1 283537380#2 283537552#0"/>
            <route replacedOnEdge="283537552#1" replacedOnIndex="45" reason="traci:changeTarget" replacedAtTime="18814.00" probability="0" edges="-254297762#2 -254297762#0 -255168048#4 -255168048#3 34128718#1 -254299113#2 143666209#2 143666209#3 143666209#4 143666209#6 91185870#0 91185870#1 -30029708#0 30030100#0 30030100#2 148846995 148846996#0 148846996#1 148846996#2 -48211487#2 -48211487#1 -48211487#0 48211960 87376672#0 87376672#1 -91185877#1 -91185877#0 -254971056#1 -8922640#1 27054205#0 27054205#1 27054209#0 -254756526#1 -254396719#1 -254466686#4 27054213#4 27054213#6 91181774#0 8919020#0 88572905 91181770#0 283537380#0 283537380#1 283537380#2 283537552#0 283537552#1 283537644#0 283537644#2 88559702#0 88559702#1"/>
            <route edges="-254297762#2 -254297762#0 -255168048#4 -255168048#3 34128718#1 -254299113#2 143666209#2 143666209#3 143666209#4 143666209#6 91185870#0 91185870#1 -30029708#0 30030100#0 30030100#2 148846995 148846996#0 148846996#1 148846996#2 -48211487#2 -48211487#1 -48211487#0 48211960 87376672#0 87376672#1 -91185877#1 -91185877#0 -254971056#1 -8922640#1 27054205#0 27054205#1 27054209#0 -254756526#1 -254396719#1 -254466686#4 27054213#4 27054213#6 91181774#0 8919020#0 88572905 91181770#0 283537380#0 283537380#1 283537380#2 283537552#0 283537552#1 -283537552#1 -283537552#0 -35675861#1 8922307 364480069 364480068#0 364480068#1 364480068#2 88572881#0 88572881#3 88597575#0 88597575#1 254466686#2 254466686#3 254466686#4 254396719#0 254756526#0 254971069#0 27054195#0 8922640#0 254971056#0 91185877#0 91185877#1 30030101#0 30030101#1 87376669 48211487#0 48211487#1 48211487#2 48211828 254756518 148874363#0 148874364#0 148874364#1 148874364#3 30029708#0 30029708#1 30029708#2 30029866#0 30029866#2 88396403 -27570798#4 255168048#4 254297762#0 254297762#1 -254297762#2"/>
        </routeDistribution>
        <stop parkingArea="parkingArea_283537552#1_0_458" duration="1144.00" parking="1"/>
    </vehicle>

    <vehicle id="207" type="vecType" depart="18966.00" arrival="20668.00">
        <routeDistribution>
            <route replacedOnEdge="88559691#4" replacedOnIndex="9" reason="traci:changeTarget" replacedAtTime="19330.00" probability="0" edges="90077241 8921938 110361656 111319423 27397919 179235243#1 364480068#1 47172745 91181771#0 88559691#4"/>
            <route edges="90077241 8921938 110361656 111319423 27397919 179235243#1 364480068#1 47172745 91181771#0 88559691#4 225518502#0 329607867 27772070 202317709 50690291#0 50690291#1 gneE4 90077241"/>
        </routeDistribution>
        <stop parkingArea="parkingArea_88559691#4_0_101" duration="981.00" parking="1"/>
    </vehicle>

    <vehicle id="171" type="vecType" depart="18540.00" arrival="20764.00">
        <routeDistribution>
            <route replacedOnEdge="225518512#0" replacedOnIndex="16" reason="traci:changeTarget" replacedAtTime="18914.00" probability="0" edges="123867455 8920391#0 255330048 255351721#0 -27656675 26943623 133735130#0 255330036#7 -8919615#1 -8919615#0 8916553#1 -8916551 -88559680#2 -88559661#2 -88559661#0 -225518512#1 225518512#0"/>
            <route edges="123867455 8920391#0 255330048 255351721#0 -27656675 26943623 133735130#0 255330036#7 -8919615#1 -8919615#0 8916553#1 -8916551 -88559680#2 -88559661#2 -88559661#0 -225518512#1 225518512#0 88559661#0 88559661#1 88559680#0 88559680#3 88559680#5 224384059#0 8920394#1 27145438#0 255330047#0 30454437 gneE21 123867455"/>
        </routeDistribution>
        <stop parkingArea="parkingArea_225518512#0_0_107" duration="1557.00" parking="1"/>
    </vehicle>

    <vehicle id="128" type="vecType" depart="18300.00" arrival="20847.00">
        <routeDistribution>
            <route replacedOnEdge="88463829#0" replacedOnIndex="31" reason="traci:changeTarget" replacedAtTime="18921.00" probability="0" edges="-133781749 -133781759#2 -133781759#1 -133781759#0 -27167270#2 -27167270#1 -27167270#0 -263855294#3 -263855294#0 -35973460#1 -228215681 -225432464 -207761516 111547662#0 88572901#0 264874017#0 25657409#17 25657409#18 25657409#19 255168047#0 255168047#3 255168046#0 255168046#2 225518502#0 225518502#2 225518502#3 111049100#0 99231460 99231482 27397691 242896157#1 88463829#0"/>
            <route edges="-133781749 -133781759#2 -133781759#1 -133781759#0 -27167270#2 -27167270#1 -27167270#0 -263855294#3 -263855294#0 -35973460#1 -228215681 -225432464 -207761516 111547662#0 88572901#0 264874017#0 25657409#17 25657409#18 25657409#19 255168047#0 255168047#3 255168046#0 255168046#2 225518502#0 225518502#2 225518502#3 111049100#0 99231460 99231482 27397691 242896157#1 88463829#0 88466055#0 88466055#1 99231468#0 35675861#0 35675861#1 283537552#0 283537552#1 283537644#0 283537644#2 88559702#0 88559702#1 88559702#2 25758528#0 25758528#1 8915151 31129732#1 26779355 8915704#0 8915704#1 254299121#6 256787755#2 256787755#3 256787755#5 91181769#0 88572943#0 88572943#1 8920338 225847523 -225853134 -8922072#1 -8922072#0 133781749 -133781749"/>
        </routeDistribution>
        <stop parkingArea="parkingArea_88463829#0_0_44" duration="1453.00" parking="1"/>
    </vehicle>

    <vehicle id="217" type="vecType" depart="18960.00" arrival="20933.00">
        <routeDistribution>
            <route replacedOnEdge="8919616#1" replacedOnIndex="14" reason="traci:changeTarget" replacedAtTime="19236.00" probability="0" edges="84823308 133755923#0 -7373728 7373736#0 -162931811#0 141688972#2 255330036#0 255330036#3 255330036#4 255330036#5 133735130#2 133735130#4 254299117#0 8919616#0 8919616#1"/>
            <route edges="84823308 133755923#0 -7373728 7373736#0 -162931811#0 141688972#2 255330036#0 255330036#3 255330036#4 255330036#5 133735130#2 133735130#4 254299117#0 8919616#0 8919616#1 47172834#2 8916553#0 8919615#0 8919615#1 -255330036#7 -255330036#6 -255330036#4 -255330036#3 -255330036#2 -141688972#2 162931811#0 -7373736#0 7373728 -133755923#0 -84823308 84823308"/>
        </routeDistribution>
        <stop parkingArea="parkingArea_8919616#1_0_491" duration="1415.00" parking="1"/>
    </vehicle>

    <vehicle id="37" type="vecType" depart="18003.00" arrival="20977.00">
        <routeDistribution>
            <route replacedOnEdge="-225518512#1" replacedOnIndex="25" reason="traci:changeTarget" replacedAtTime="18504.00" probability="0" edges="27398045#1 27398045#2 27398045#3 27398045#4 27398045#5 27398045#6 27398045#7 8919058 8916882#0 -91181760#0 -100400946 -91181759#5 -28841115#2 -28841115#1 286003244#6 286003244#9 224316514#0 287958607#3 287958607#4 133733590#0 -224384019#1 88597577#0 88559691#0 88559691#4 225518512#0 -225518512#1"/>
            <route edges="27398045#1 27398045#2 27398045#3 27398045#4 27398045#5 27398045#6 27398045#7 8919058 8916882#0 -91181760#0 -100400946 -91181759#5 -28841115#2 -28841115#1 286003244#6 286003244#9 224316514#0 287958607#3 287958607#4 133733590#0 -224384019#1 88597577#0 88559691#0 88559691#4 225518512#0 -225518512#1 -88559691#6 -88559691#3 88559669 88572965#0 88572965#1 111552058#0 88597544#0 144489134#2 184956229#0 111586254#0 28841120#0 gneE25 28841115#0 28841115#2 91181759#2 100400946 91181760#0 91181760#1 27166421#1 254756525#19 254756525#20 254756525#23 254756525#25 254756525#26 gneE8 27398045#1"/>
        </routeDistribution>
        <stop parkingArea="parkingArea_-225518512#1_0_517" duration="2000.00" parking="1"/>
    </vehicle>

    <vehicle id="49" type="vecType" depart="18063.00" arrival="21015.00">
        <routeDistribution>
            <route replacedOnEdge="31129732#0" replacedOnIndex="15" reason="traci:changeTarget" replacedAtTime="18514.00" probability="0" edges="31129765 123741465 123741454#0 123741454#1 123741454#2 123741454#3 123741452 202317709 50690291#0 50690291#1 gneE4 90077241 8921938 120813417 202485364 31129732#0"/>
            <route edges="31129765 123741465 123741454#0 123741454#1 123741454#2 123741454#3 123741452 202317709 50690291#0 50690291#1 gneE4 90077241 8921938 120813417 202485364 31129732#0 31129732#1 31129732#2 254299122 154966358 gneE27 31129765"/>
        </routeDistribution>
        <stop parkingArea="parkingArea_31129732#0_0_532" duration="2370.00" parking="1"/>
    </vehicle>

    <vehicle id="59" type="vecType" depart="18063.00" arrival="21018.00">
        <routeDistribution>
            <route replacedOnEdge="255330056#0" replacedOnIndex="31" reason="traci:setRoute" replacedAtTime="18543.00" probability="0" edges="-27029200#2 -27029200#1 -25758513 27029265#3 186400366#0 186400366#1 186400366#2 186400366#5 186400366#6 186400366#7 186400366#8 186400366#9 186400366#12 186400366#13 254299118#0 254299118#1 254299118#2 254299118#3 254308548#0 254308548#2 186400365 143666207#0 254299117#0 254299117#1 88559650 26944075#0 26944075#1 179235223 175129396#0 255330038#0 255330038#2 255330056#0 88466052#0"/>
            <route replacedOnEdge="-242896157#3" replacedOnIndex="34" reason="traci:changeTarget" replacedAtTime="18573.00" probability="0" edges="-27029200#2 -27029200#1 -25758513 27029265#3 186400366#0 186400366#1 186400366#2 186400366#5 186400366#6 186400366#7 186400366#8 186400366#9 186400366#12 186400366#13 254299118#0 254299118#1 254299118#2 254299118#3 254308548#0 254308548#2 186400365 143666207#0 254299117#0 254299117#1 88559650 26944075#0 26944075#1 179235223 175129396#0 255330038#0 255330038#2 255330056#0 88466052#0 -88463830 -242896157#3 120256350#8"/>
            <route edges="-27029200#2 -27029200#1 -25758513 27029265#3 186400366#0 186400366#1 186400366#2 186400366#5 186400366#6 186400366#7 186400366#8 186400366#9 186400366#12 186400366#13 254299118#0 254299118#1 254299118#2 254299118#3 254308548#0 254308548#2 186400365 143666207#0 254299117#0 254299117#1 88559650 26944075#0 26944075#1 179235223 175129396#0 255330038#0 255330038#2 255330056#0 88466052#0 -88463830 -242896157#3 -242896157#0 -202485361#1 -99231486 364480601#0 283537380#0 283537380#1 283537380#2 283537552#0 283537552#1 283537644#0 283537644#2 88559702#0 88559702#1 88559702#2 25758528#0 25758528#1 8915151 31129732#1 26779355 8915704#0 8915704#1 254299121#6 254299121#8 254299121#9 25758513 27029200#0 27029200#2 -27029200#2"/>
        </routeDistribution>
        <stop parkingArea="parkingArea_-242896157#3_0_434" duration="2120.00" parking="1"/>
    </vehicle>

    <vehicle id="115" type="vecType" depart="18240.00" arrival="21021.00">
        <routeDistribution>
            <route replacedOnEdge="254756520#0" replacedOnIndex="16" reason="traci:changeTarget" replacedAtTime="18640.00" probability="0" edges="90077241 8921938 110361656 111319423 27397919 179235243#1 364480068#1 364480068#2 88572881#0 88572881#3 88597575#0 88597575#1 88597575#3 88597575#6 27398048#4 27398048#2 254756520#0"/>
            <route edges="90077241 8921938 110361656 111319423 27397919 179235243#1 364480068#1 364480068#2 88572881#0 88572881#3 88597575#0 88597575#1 88597575#3 88597575#6 27398048#4 27398048#2 254756520#0 254756520#2 254756520#3 254396710#0 254396710#1 88597563#0 256400244#0 225432457 -99231486 364480601#0 283537380#0 283537380#1 283537380#2 8915351 50690291#0 50690291#1 gneE4 90077241"/>
        </routeDistribution>
        <stop parkingArea="parkingArea_254756520#0_0_352" duration="1846.00" parking="1"/>
    </vehicle>

    <vehicle id="124" type="vecType" depart="18240.00" arrival="21044.00">
        <routeDistribution>
            <route replacedOnEdge="283537380#2" replacedOnIndex="20" reason="traci:setRoute" replacedAtTime="18981.00" probability="0" edges="254396707#6 254396707#7 254396707#8 254758115#0 254758115#2 254758114#0 254758114#1 254758114#2 286003244#1 286003244#6 286003244#9 224316514#0 254306572#0 224316513#0 91181774#0 8919020#0 88572905 91181770#0 283537380#0 283537380#1 283537380#2 283537552#0"/>
            <route replacedOnEdge="283537552#1" replacedOnIndex="22" reason="traci:changeTarget" replacedAtTime="18994.00" probability="0" edges="254396707#6 254396707#7 254396707#8 254758115#0 254758115#2 254758114#0 254758114#1 254758114#2 286003244#1 286003244#6 286003244#9 224316514#0 254306572#0 224316513#0 91181774#0 8919020#0 88572905 91181770#0 283537380#0 283537380#1 283537380#2 283537552#0 283537552#1 283537644#0 283537644#2 88559702#0 88559702#1"/>
            <route edges="254396707#6 254396707#7 254396707#8 254758115#0 254758115#2 254758114#0 254758114#1 254758114#2 286003244#1 286003244#6 286003244#9 224316514#0 254306572#0 224316513#0 91181774#0 8919020#0 88572905 91181770#0 283537380#0 283537380#1 283537380#2 283537552#0 283537552#1 -283537552#1 -283537552#0 -35675861#1 8922307 364480069 364480068#0 364480068#1 364480068#2 88572881#0 88572881#3 88597575#0 88597553#1 88597553#2 254971067#0 254466695#0 254466695#2 254466695#3 329596844#1 329596844#2 100400947#1 100400947#2 100400947#4 100400947#5 100400947#6 100400947#7 100400947#9 100400947#10 100400947#11 gneE9 254396707#6"/>
        </routeDistribution>
        <stop parkingArea="parkingArea_283537552#1_0_458" duration="1422.00" parking="1"/>
    </vehicle>

    <vehicle id="74" type="vecType" depart="18120.00" arrival="21060.00">
        <routeDistribution>
            <route replacedOnEdge="254448252#0" replacedOnIndex="8" reason="traci:setRoute" replacedAtTime="18285.00" probability="0" edges="144489137#0 144489137#1 144489137#2 254758122#6 254758122#7 225847522#0 8922164#5 8922164#6 254448252#0 -8918039#1"/>
            <route replacedOnEdge="225806031#2" replacedOnIndex="10" reason="traci:changeTarget" replacedAtTime="18341.00" probability="0" edges="144489137#0 144489137#1 144489137#2 254758122#6 254758122#7 225847522#0 8922164#5 8922164#6 254448252#0 -8918039#1 225806031#2 254759928#0"/>
            <route edges="144489137#0 144489137#1 144489137#2 254758122#6 254758122#7 225847522#0 8922164#5 8922164#6 254448252#0 -8918039#1 225806031#2 254759936 254448248 254448249#0 254448249#2 254448249#4 91181767 gneE12 144489137#0"/>
        </routeDistribution>
        <stop parkingArea="parkingArea_225806031#2_0_677" duration="2519.00" parking="1"/>
    </vehicle>

    <vehicle id="120" type="vecType" depart="18240.00" arrival="21085.00">
        <routeDistribution>
            <route replacedOnEdge="-283537552#1" replacedOnIndex="20" reason="traci:setRoute" replacedAtTime="18873.00" probability="0" edges="86303763#0 86303763#1 86303763#2 86303763#4 86303763#5 86303763#6 86303763#10 86303763#11 86303763#14 86303763#17 111586257 28841123#0 224316522#0 133733590#0 -224384019#1 88597577#0 88559691#0 88559691#4 225518502#0 329607867 -283537552#1 -283537552#0"/>
            <route replacedOnEdge="283537552#1" replacedOnIndex="23" reason="traci:changeTarget" replacedAtTime="18890.00" probability="0" edges="86303763#0 86303763#1 86303763#2 86303763#4 86303763#5 86303763#6 86303763#10 86303763#11 86303763#14 86303763#17 111586257 28841123#0 224316522#0 133733590#0 -224384019#1 88597577#0 88559691#0 88559691#4 225518502#0 329607867 -283537552#1 -283537552#0 283537552#0 283537552#1 283537644#0 283537644#2 88559702#0 88559702#1"/>
            <route edges="86303763#0 86303763#1 86303763#2 86303763#4 86303763#5 86303763#6 86303763#10 86303763#11 86303763#14 86303763#17 111586257 28841123#0 224316522#0 133733590#0 -224384019#1 88597577#0 88559691#0 88559691#4 225518502#0 329607867 -283537552#1 -283537552#0 283537552#0 283537552#1 283537644#0 283537644#2 -225518512#1 -88559691#6 -88559691#3 88559669 88572965#0 88572965#1 111552058#0 88597544#0 144489134#2 144489134#3 290080809#0 290080809#4 84654238#0 84654238#3 28841121#4 254297763#0 254297763#1 254297763#2 254297763#3 254297763#4 254297763#6 254297763#7 gneE10 86303763#0"/>
        </routeDistribution>
        <stop parkingArea="parkingArea_283537552#1_0_458" duration="1628.00" parking="1"/>
    </vehicle>

    <vehicle id="66" type="vecType" depart="18060.00" arrival="21121.00">
        <routeDistribution>
            <route replacedOnEdge="99231463#0" replacedOnIndex="36" reason="traci:changeTarget" replacedAtTime="18551.00" probability="0" edges="-206662304#13 -206662304#12 -206662304#11 -206662304#10 -206662304#8 -206662304#6 -206662304#4 -206662304#1 -254756527 148846996#1 148846996#2 -48211487#2 -48211487#1 -48211487#0 48211960 87376672#0 87376672#1 -91185877#1 -91185877#0 -254971056#1 -8922640#1 27054205#0 27054205#1 27054209#0 -254756526#1 -254396719#1 -254466686#4 -254466686#3 -254466686#2 -254466686#1 -254466686#0 254396710#0 254396710#1 88597563#0 256400244#0 -99231475 99231463#0"/>
            <route edges="-206662304#13 -206662304#12 -206662304#11 -206662304#10 -206662304#8 -206662304#6 -206662304#4 -206662304#1 -254756527 148846996#1 148846996#2 -48211487#2 -48211487#1 -48211487#0 48211960 87376672#0 87376672#1 -91185877#1 -91185877#0 -254971056#1 -8922640#1 27054205#0 27054205#1 27054209#0 -254756526#1 -254396719#1 -254466686#4 -254466686#3 -254466686#2 -254466686#1 -254466686#0 254396710#0 254396710#1 88597563#0 256400244#0 -99231475 99231463#0 224373751 28319343#0 8916375#0 8916375#1 254466686#0 254466686#1 254466686#2 254466686#3 254466686#4 254396719#0 254756526#0 254971069#0 27054195#0 8922640#0 254971056#0 91185877#0 91185877#1 30030101#0 30030101#1 87376669 48211487#0 48211487#1 48211487#2 48211828 254756518 148874366 254756527 206662304#0 206662304#4 206662304#5 206662304#7 206662304#9 206662304#11 206662304#12 206662304#13 -206662304#13"/>
        </routeDistribution>
        <stop parkingArea="parkingArea_99231463#0_0_394" duration="1971.00" parking="1"/>
    </vehicle>

    <vehicle id="142" type="vecType" depart="18480.00" arrival="21123.00">
        <routeDistribution>
            <route replacedOnEdge="255330056#0" replacedOnIndex="30" reason="traci:setRoute" replacedAtTime="18976.00" probability="0" edges="-27029204 -25758513 27029265#3 186400366#0 186400366#1 186400366#2 186400366#5 186400366#6 186400366#7 186400366#8 186400366#9 186400366#12 186400366#13 254299118#0 254299118#1 254299118#2 254299118#3 254308548#0 254308548#2 186400365 143666207#0 254299117#0 254299117#1 88559650 26944075#0 26944075#1 179235223 175129396#0 255330038#0 255330038#2 255330056#0 8917425"/>