<?xml version="1.0" encoding="UTF-8"?>

<!-- generated on 2022-12-24 10:52:50 by Eclipse SUMO sumo Version 1.14.1
<configuration xmlns:xsi="http://www.w3.org/2001/XMLSchema-instance" xsi:noNamespaceSchemaLocation="http://sumo.dlr.de/xsd/sumoConfiguration.xsd">

    <input>
        <net-file value="./strategia1_config/../san_francisco.net.xml"/>
        <route-files value="./strategia1_config/../san_francisco.rou.xml"/>
        <additional-files value="./strategia1_config/../san_francisco.poly.xml,./strategia1_config/../parking_capacity_50%25/off_parking_50%25.add.xml,./strategia1_config/../parking_capacity_50%25/on_parking_50%25.add.xml"/>
    </input>

    <output>
        <emission-output value="./strategia1_config/../output/strategia1/50%25/emissions.xml"/>
        <tripinfo-output value="./strategia1_config/../output/strategia1/50%25/tripinfo.xml"/>
        <vehroute-output value="./strategia1_config/../output/strategia1/50%25/vehroute.xml"/>
        <stop-output value="./strategia1_config/../output/strategia1/50%25/stops.xml"/>
        <collision-output value="./strategia1_config/../output/strategia1/50%25/collision.xml"/>
        <statistic-output value="./strategia1_config/../output/strategia1/50%25/statistic.xml"/>
    </output>

    <time>
        <step-length value="1"/>
    </time>

    <processing>
        <ignore-route-errors value="false"/>
    </processing>

    <report>
        <verbose value="true"/>
        <xml-validation value="never"/>
    </report>

    <traci_server>
        <remote-port value="49342"/>
    </traci_server>

    <gui_only>
        <gui-settings-file value="./strategia1_config/../gui-settings.cfg"/>
        <start value="true"/>
    </gui_only>

</configuration>
-->

<tripinfos xmlns:xsi="http://www.w3.org/2001/XMLSchema-instance" xsi:noNamespaceSchemaLocation="http://sumo.dlr.de/xsd/tripinfo_file.xsd">
    <tripinfo id="0" depart="18000.00" departLane="123867455_0" departPos="5.10" departSpeed="0.00" departDelay="0.00" arrival="18611.00" arrivalLane="123867455_0" arrivalPos="904.85" arrivalSpeed="29.88" duration="611.00" routeLength="5708.79" waitingTime="113.00" waitingCount="4" stopTime="100.00" timeLoss="175.04" rerouteNo="4" devices="vehroute_0 tripinfo_0 emissions_0" vType="vecType" speedFactor="1.06" vaporized="">
        <emissions CO_abs="41976.325588" CO2_abs="1819647.185240" HC_abs="234.648316" PMx_abs="36.721576" NOx_abs="739.379946" fuel_abs="580390.195306" electricity_abs="0"/>
    </tripinfo>
    <tripinfo id="2" depart="18006.00" departLane="123867455_0" departPos="5.10" departSpeed="0.00" departDelay="6.00" arrival="18787.00" arrivalLane="123867455_0" arrivalPos="904.85" arrivalSpeed="29.27" duration="781.00" routeLength="5527.04" waitingTime="259.00" waitingCount="10" stopTime="100.00" timeLoss="345.03" rerouteNo="4" devices="vehroute_2 tripinfo_2 emissions_2" vType="vecType" speedFactor="1.01" vaporized="">
        <emissions CO_abs="67791.014545" CO2_abs="2205735.807590" HC_abs="361.185208" PMx_abs="46.003622" NOx_abs="917.830368" fuel_abs="703544.194659" electricity_abs="0"/>
    </tripinfo>
    <tripinfo id="4" depart="18012.00" departLane="123867455_0" departPos="5.10" departSpeed="0.00" departDelay="12.00" arrival="18876.00" arrivalLane="123867455_0" arrivalPos="904.85" arrivalSpeed="28.93" duration="864.00" routeLength="5347.03" waitingTime="351.00" waitingCount="10" stopTime="100.00" timeLoss="449.73" rerouteNo="3" devices="vehroute_4 tripinfo_4 emissions_4" vType="vecType" speedFactor="1.03" vaporized="">
        <emissions CO_abs="85182.030271" CO2_abs="2489044.240894" HC_abs="447.188116" PMx_abs="53.725910" NOx_abs="1050.218994" fuel_abs="793911.853134" electricity_abs="0"/>
    </tripinfo>
    <tripinfo id="3" depart="18009.00" departLane="123867455_0" departPos="5.10" departSpeed="0.00" departDelay="9.00" arrival="18883.00" arrivalLane="123867455_0" arrivalPos="904.85" arrivalSpeed="31.40" duration="874.00" routeLength="5527.04" waitingTime="331.00" waitingCount="11" stopTime="100.00" timeLoss="459.86" rerouteNo="4" devices="vehroute_3 tripinfo_3 emissions_3" vType="vecType" speedFactor="1.08" vaporized="">
        <emissions CO_abs="85946.449414" CO2_abs="2595006.777230" HC_abs="453.341951" PMx_abs="56.438144" NOx_abs="1097.505667" fuel_abs="827707.623441" electricity_abs="0"/>
    </tripinfo>
    <tripinfo id="1" depart="18003.00" departLane="123867455_0" departPos="5.10" departSpeed="0.00" departDelay="3.00" arrival="18888.00" arrivalLane="123867455_0" arrivalPos="904.85" arrivalSpeed="27.15" duration="885.00" routeLength="6099.79" waitingTime="272.00" waitingCount="11" stopTime="100.00" timeLoss="368.67" rerouteNo="7" devices="vehroute_1 tripinfo_1 emissions_1" vType="vecType" speedFactor="0.94" vaporized="">
        <emissions CO_abs="72241.376354" CO2_abs="2384332.512394" HC_abs="385.039927" PMx_abs="47.829255" NOx_abs="984.396794" fuel_abs="760510.657985" electricity_abs="0"/>
    </tripinfo>
    <tripinfo id="6" depart="18018.00" departLane="123867455_0" departPos="5.10" departSpeed="0.00" departDelay="18.00" arrival="18888.00" arrivalLane="123867455_1" arrivalPos="904.85" arrivalSpeed="30.11" duration="870.00" routeLength="5708.79" waitingTime="333.00" waitingCount="6" stopTime="100.00" timeLoss="429.39" rerouteNo="4" devices="vehroute_6 tripinfo_6 emissions_6" vType="vecType" speedFactor="1.05" vaporized="">
        <emissions CO_abs="79449.901635" CO2_abs="2415399.988034" HC_abs="419.122875" PMx_abs="51.202439" NOx_abs="1013.517222" fuel_abs="770421.033287" electricity_abs="0"/>
    </tripinfo>
    <tripinfo id="17" depart="18051.00" departLane="123867455_0" departPos="5.10" departSpeed="0.00" departDelay="51.00" arrival="18891.00" arrivalLane="123867455_0" arrivalPos="904.85" arrivalSpeed="26.07" duration="840.00" routeLength="5347.03" waitingTime="288.00" waitingCount="10" stopTime="100.00" timeLoss="396.60" rerouteNo="3" devices="vehroute_17 tripinfo_17 emissions_17" vType="vecType" speedFactor="0.94" vaporized="">
        <emissions CO_abs="74454.184180" CO2_abs="2268230.374320" HC_abs="392.233865" PMx_abs="47.290934" NOx_abs="952.039877" fuel_abs="723479.790983" electricity_abs="0"/>
    </tripinfo>
    <tripinfo id="7" depart="18021.00" departLane="123867455_0" departPos="5.10" departSpeed="0.00" departDelay="21.00" arrival="19073.00" arrivalLane="123867455_0" arrivalPos="904.85" arrivalSpeed="24.68" duration="1052.00" routeLength="5527.04" waitingTime="458.00" waitingCount="13" stopTime="101.00" timeLoss="567.87" rerouteNo="4" devices="vehroute_7 tripinfo_7 emissions_7" vType="vecType" speedFactor="0.89" vaporized="">
        <emissions CO_abs="103062.162350" CO2_abs="2738481.506063" HC_abs="533.328927" PMx_abs="57.860486" NOx_abs="1162.296713" fuel_abs="873479.036214" electricity_abs="0"/>
    </tripinfo>
    <tripinfo id="5" depart="18015.00" departLane="123867455_0" departPos="5.10" departSpeed="0.00" departDelay="15.00" arrival="19078.00" arrivalLane="123867455_0" arrivalPos="904.85" arrivalSpeed="23.11" duration="1063.00" routeLength="5542.59" waitingTime="447.00" waitingCount="13" stopTime="100.00" timeLoss="552.58" rerouteNo="5" devices="vehroute_5 tripinfo_5 emissions_5" vType="vecType" speedFactor="0.83" vaporized="">
        <emissions CO_abs="100241.493258" CO2_abs="2664152.570941" HC_abs="518.405209" PMx_abs="55.670814" NOx_abs="1128.405946" fuel_abs="849771.187295" electricity_abs="0"/>
    </tripinfo>
    <tripinfo id="10" depart="18030.00" departLane="123867455_0" departPos="5.10" departSpeed="0.00" departDelay="30.00" arrival="19145.00" arrivalLane="123867455_0" arrivalPos="904.85" arrivalSpeed="30.90" duration="1115.00" routeLength="5527.04" waitingTime="571.00" waitingCount="13" stopTime="100.00" timeLoss="703.51" rerouteNo="4" devices="vehroute_10 tripinfo_10 emissions_10" vType="vecType" speedFactor="1.09" vaporized="">
        <emissions CO_abs="124422.882941" CO2_abs="3161073.960558" HC_abs="641.248102" PMx_abs="70.480613" NOx_abs="1357.447440" fuel_abs="1008271.163745" electricity_abs="0"/>
    </tripinfo>
    <tripinfo id="13" depart="18039.00" departLane="123867455_0" departPos="5.10" departSpeed="0.00" departDelay="39.00" arrival="19149.00" arrivalLane="123867455_1" arrivalPos="904.85" arrivalSpeed="32.49" duration="1110.00" routeLength="5347.03" waitingTime="577.00" waitingCount="14" stopTime="100.00" timeLoss="722.31" rerouteNo="3" devices="vehroute_13 tripinfo_13 emissions_13" vType="vecType" speedFactor="1.12" vaporized="">
        <emissions CO_abs="129095.559500" CO2_abs="3246814.742915" HC_abs="665.109145" PMx_abs="73.757038" NOx_abs="1402.690268" fuel_abs="1035618.750355" electricity_abs="0"/>
    </tripinfo>
    <tripinfo id="11" depart="18033.00" departLane="123867455_0" departPos="5.10" departSpeed="0.00" departDelay="33.00" arrival="19151.00" arrivalLane="123867455_0" arrivalPos="904.85" arrivalSpeed="28.53" duration="1118.00" routeLength="5527.04" waitingTime="551.00" waitingCount="14" stopTime="100.00" timeLoss="686.72" rerouteNo="4" devices="vehroute_11 tripinfo_11 emissions_11" vType="vecType" speedFactor="1.03" vaporized="">
        <emissions CO_abs="121170.311238" CO2_abs="3092386.832791" HC_abs="625.073076" PMx_abs="68.150000" NOx_abs="1325.660405" fuel_abs="986362.765032" electricity_abs="0"/>
    </tripinfo>
    <tripinfo id="8" depart="18024.00" departLane="123867455_0" departPos="5.10" departSpeed="0.00" departDelay="24.00" arrival="19157.00" arrivalLane="123867455_0" arrivalPos="904.85" arrivalSpeed="26.23" duration="1133.00" routeLength="5347.03" waitingTime="571.00" waitingCount="13" stopTime="100.00" timeLoss="687.31" rerouteNo="3" devices="vehroute_8 tripinfo_8 emissions_8" vType="vecType" speedFactor="0.94" vaporized="">
        <emissions CO_abs="121104.318578" CO2_abs="3019718.340405" HC_abs="622.400857" PMx_abs="65.945911" NOx_abs="1293.408556" fuel_abs="963186.188292" electricity_abs="0"/>
    </tripinfo>
    <tripinfo id="9" depart="18027.00" departLane="123867455_0" departPos="5.10" departSpeed="0.00" departDelay="27.00" arrival="19172.00" arrivalLane="123867455_0" arrivalPos="904.85" arrivalSpeed="24.88" duration="1145.00" routeLength="5527.04" waitingTime="530.00" waitingCount="13" stopTime="100.00" timeLoss="648.34" rerouteNo="4" devices="vehroute_9 tripinfo_9 emissions_9" vType="vecType" speedFactor="0.86" vaporized="">
        <emissions CO_abs="115187.440742" CO2_abs="2927723.453251" HC_abs="592.512438" PMx_abs="61.842763" NOx_abs="1243.115011" fuel_abs="933843.581705" electricity_abs="0"/>
    </tripinfo>
    <tripinfo id="12" depart="18036.00" departLane="123867455_0" departPos="5.10" departSpeed="0.00" departDelay="36.00" arrival="19236.00" arrivalLane="123867455_0" arrivalPos="904.85" arrivalSpeed="29.22" duration="1200.00" routeLength="5734.57" waitingTime="626.00" waitingCount="14" stopTime="100.00" timeLoss="757.27" rerouteNo="4" devices="vehroute_12 tripinfo_12 emissions_12" vType="vecType" speedFactor="1.05" vaporized="">
        <emissions CO_abs="134103.545402" CO2_abs="3319991.609790" HC_abs="689.336918" PMx_abs="73.486997" NOx_abs="1423.366977" fuel_abs="1058963.040024" electricity_abs="0"/>
    </tripinfo>
    <tripinfo id="19" depart="18057.00" departLane="123867455_0" departPos="5.10" departSpeed="0.00" departDelay="57.00" arrival="19320.00" arrivalLane="123867455_0" arrivalPos="904.85" arrivalSpeed="33.61" duration="1263.00" routeLength="5939.63" waitingTime="646.00" waitingCount="16" stopTime="100.00" timeLoss="837.41" rerouteNo="5" devices="vehroute_19 tripinfo_19 emissions_19" vType="vecType" speedFactor="1.16" vaporized="">
        <emissions CO_abs="147190.968390" CO2_abs="3657280.495182" HC_abs="756.626109" PMx_abs="82.664988" NOx_abs="1578.913347" fuel_abs="1166544.208174" electricity_abs="0"/>
    </tripinfo>
    <tripinfo id="14" depart="18042.00" departLane="123867455_0" departPos="5.10" departSpeed="0.00" departDelay="42.00" arrival="19330.00" arrivalLane="123867455_0" arrivalPos="904.85" arrivalSpeed="27.77" duration="1288.00" routeLength="5347.03" waitingTime="701.00" waitingCount="18" stopTime="100.00" timeLoss="861.55" rerouteNo="3" devices="vehroute_14 tripinfo_14 emissions_14" vType="vecType" speedFactor="0.99" vaporized="">
        <emissions CO_abs="150548.154136" CO2_abs="3535563.649680" HC_abs="769.092044" PMx_abs="79.017097" NOx_abs="1527.088918" fuel_abs="1127726.627359" electricity_abs="0"/>
    </tripinfo>
    <tripinfo id="16" depart="18048.00" departLane="123867455_0" departPos="5.10" departSpeed="0.00" departDelay="48.00" arrival="19431.00" arrivalLane="123867455_0" arrivalPos="904.85" arrivalSpeed="24.49" duration="1383.00" routeLength="6061.91" waitingTime="666.00" waitingCount="19" stopTime="100.00" timeLoss="842.35" rerouteNo="6" devices="vehroute_16 tripinfo_16 emissions_16" vType="vecType" speedFactor="0.88" vaporized="">
        <emissions CO_abs="146635.926641" CO2_abs="3532280.667564" HC_abs="750.014889" PMx_abs="75.962141" NOx_abs="1513.419766" fuel_abs="1126679.699237" electricity_abs="0"/>
    </tripinfo>
    <tripinfo id="15" depart="18045.00" departLane="123867455_0" departPos="5.10" departSpeed="0.00" departDelay="45.00" arrival="19517.00" arrivalLane="123867455_0" arrivalPos="904.85" arrivalSpeed="26.19" duration="1472.00" routeLength="6766.54" waitingTime="709.00" waitingCount="19" stopTime="100.00" timeLoss="885.56" rerouteNo="8" devices="vehroute_15 tripinfo_15 emissions_15" vType="vecType" speedFactor="0.93" vaporized="">
        <emissions CO_abs="156231.665587" CO2_abs="3828581.541871" HC_abs="801.228830" PMx_abs="82.391504" NOx_abs="1640.515692" fuel_abs="1221188.177100" electricity_abs="0"/>
    </tripinfo>
    <tripinfo id="18" depart="18054.00" departLane="123867455_0" departPos="5.10" departSpeed="0.00" departDelay="54.00" arrival="19519.00" arrivalLane="123867455_0" arrivalPos="904.85" arrivalSpeed="26.22" duration="1465.00" routeLength="5734.57" waitingTime="788.00" waitingCount="20" stopTime="100.00" timeLoss="981.76" rerouteNo="4" devices="vehroute_18 tripinfo_18 emissions_18" vType="vecType" speedFactor="0.94" vaporized="">
        <emissions CO_abs="167281.764283" CO2_abs="3829430.546403" HC_abs="851.539422" PMx_abs="84.791426" NOx_abs="1655.595956" fuel_abs="1221463.300325" electricity_abs="0"/>
    </tripinfo>
</tripinfos>
