<?xml version="1.0" encoding="UTF-8"?>

<!-- generated on 2022-12-09 18:10:54 by Eclipse SUMO sumo Version 1.14.1
<configuration xmlns:xsi="http://www.w3.org/2001/XMLSchema-instance" xsi:noNamespaceSchemaLocation="http://sumo.dlr.de/xsd/sumoConfiguration.xsd">

    <input>
        <net-file value="./strategia1_config/../san_francisco.net.xml"/>
        <route-files value="./strategia1_config/../san_francisco.rou.xml"/>
        <additional-files value="./strategia1_config/../san_francisco.poly.xml,./strategia1_config/../parking_capacity_50%25/off_parking_50%25.add.xml,./strategia1_config/../parking_capacity_50%25/on_parking_50%25.add.xml"/>
    </input>

    <output>
        <emission-output value="./strategia1_config/../output/strategia1/50%25/emission.xml"/>
        <summary-output value="./strategia1_config/../output/strategia1/50%25/summary.xml"/>
        <tripinfo-output value="./strategia1_config/../output/strategia1/50%25/tripinfo.xml"/>
        <vehroute-output value="./strategia1_config/../output/strategia1/50%25/vehroute.xml"/>
        <stop-output value="./strategia1_config/../output/strategia1/50%25/stops.xml"/>
        <collision-output value="./strategia1_config/../output/strategia1/50%25/collision.xml"/>
        <statistic-output value="./strategia1_config/../output/strategia1/50%25/statistic.xml"/>
    </output>

    <time>
        <step-length value="1"/>
    </time>

    <processing>
        <ignore-route-errors value="false"/>
        <time-to-teleport value="-1"/>
    </processing>

    <report>
        <verbose value="true"/>
        <xml-validation value="never"/>
    </report>

    <traci_server>
        <remote-port value="53444"/>
    </traci_server>

    <gui_only>
        <gui-settings-file value="./strategia1_config/../gui-settings.cfg"/>
        <start value="true"/>
    </gui_only>

</configuration>
-->

<tripinfos xmlns:xsi="http://www.w3.org/2001/XMLSchema-instance" xsi:noNamespaceSchemaLocation="http://sumo.dlr.de/xsd/tripinfo_file.xsd">
    <tripinfo id="30" depart="18000.00" departLane="-91181760#0_0" departPos="5.10" departSpeed="0.00" departDelay="0.00" arrival="18342.00" arrivalLane="-91181760#0_0" arrivalPos="79.70" arrivalSpeed="12.37" duration="342.00" routeLength="3660.42" waitingTime="0.00" waitingCount="0" stopTime="20.00" timeLoss="43.71" rerouteNo="1" devices="vehroute_30 tripinfo_30 emissions_30" vType="vecType" speedFactor="1.18" vaporized="">
        <emissions CO_abs="12311.252101" CO2_abs="958774.179097" HC_abs="77.664471" PMx_abs="15.437913" NOx_abs="379.200194" fuel_abs="305805.211082" electricity_abs="0"/>
    </tripinfo>
    <tripinfo id="1" depart="18000.00" departLane="31129765_0" departPos="5.10" departSpeed="0.00" departDelay="0.00" arrival="18356.00" arrivalLane="31129765_0" arrivalPos="639.51" arrivalSpeed="20.44" duration="356.00" routeLength="4341.32" waitingTime="21.00" waitingCount="2" stopTime="20.00" timeLoss="67.27" rerouteNo="1" devices="vehroute_1 tripinfo_1 emissions_1" vType="vecType" speedFactor="0.94" vaporized="">
        <emissions CO_abs="18671.832496" CO2_abs="1163103.173576" HC_abs="111.532755" PMx_abs="21.181227" NOx_abs="459.856803" fuel_abs="370977.448216" electricity_abs="0"/>
    </tripinfo>
    <tripinfo id="45" depart="18060.00" departLane="31129765_0" departPos="5.10" departSpeed="0.00" departDelay="0.00" arrival="18382.00" arrivalLane="31129765_0" arrivalPos="639.51" arrivalSpeed="23.54" duration="322.00" routeLength="4234.28" waitingTime="40.00" waitingCount="1" stopTime="20.00" timeLoss="78.92" rerouteNo="1" devices="vehroute_45 tripinfo_45 emissions_45" vType="vecType" speedFactor="1.09" vaporized="">
        <emissions CO_abs="23144.509106" CO2_abs="1281827.939857" HC_abs="135.725394" PMx_abs="25.879043" NOx_abs="519.238607" fuel_abs="408844.551799" electricity_abs="0"/>
    </tripinfo>
    <tripinfo id="60" depart="18060.00" departLane="8916792_0" departPos="5.10" departSpeed="0.00" departDelay="0.00" arrival="18488.00" arrivalLane="8916792_0" arrivalPos="615.11" arrivalSpeed="10.82" duration="428.00" routeLength="3743.73" waitingTime="52.00" waitingCount="3" stopTime="20.00" timeLoss="97.90" rerouteNo="1" devices="vehroute_60 tripinfo_60 emissions_60" vType="vecType" speedFactor="1.08" vaporized="">
        <emissions CO_abs="19560.335661" CO2_abs="975260.113355" HC_abs="111.088602" PMx_abs="15.248377" NOx_abs="383.430179" fuel_abs="311068.509103" electricity_abs="0"/>
    </tripinfo>
    <tripinfo id="74" depart="18120.00" departLane="144489137#0_0" departPos="5.10" departSpeed="0.00" departDelay="0.00" arrival="18541.00" arrivalLane="144489137#0_0" arrivalPos="135.49" arrivalSpeed="9.71" duration="421.00" routeLength="2495.66" waitingTime="123.00" waitingCount="5" stopTime="20.00" timeLoss="170.30" rerouteNo="6" devices="vehroute_74 tripinfo_74 emissions_74" vType="vecType" speedFactor="0.96" vaporized="">
        <emissions CO_abs="31980.231395" CO2_abs="1003527.972226" HC_abs="168.705042" PMx_abs="18.519004" NOx_abs="416.893672" fuel_abs="320088.810696" electricity_abs="0"/>
    </tripinfo>
    <tripinfo id="28" depart="18009.00" departLane="90077241_0" departPos="5.10" departSpeed="0.00" departDelay="9.00" arrival="18576.00" arrivalLane="90077241_0" arrivalPos="3225.35" arrivalSpeed="31.92" duration="567.00" routeLength="11899.33" waitingTime="66.00" waitingCount="2" stopTime="20.00" timeLoss="119.20" rerouteNo="3" devices="vehroute_28 tripinfo_28 emissions_28" vType="vecType" speedFactor="1.13" vaporized="">
        <emissions CO_abs="60508.399784" CO2_abs="3098929.525454" HC_abs="353.245335" PMx_abs="71.435369" NOx_abs="1214.115185" fuel_abs="988417.732055" electricity_abs="0"/>
    </tripinfo>
    <tripinfo id="76" depart="18120.00" departLane="225806031#0_0" departPos="5.10" departSpeed="0.00" departDelay="0.00" arrival="18576.00" arrivalLane="225806031#0_0" arrivalPos="142.16" arrivalSpeed="10.74" duration="456.00" routeLength="3181.76" waitingTime="109.00" waitingCount="4" stopTime="20.00" timeLoss="161.86" rerouteNo="1" devices="vehroute_76 tripinfo_76 emissions_76" vType="vecType" speedFactor="1.03" vaporized="">
        <emissions CO_abs="31230.378552" CO2_abs="1148891.445960" HC_abs="168.700343" PMx_abs="20.473511" NOx_abs="471.096840" fuel_abs="366451.998737" electricity_abs="0"/>
    </tripinfo>
    <tripinfo id="49" depart="18063.00" departLane="31129765_0" departPos="5.10" departSpeed="0.00" departDelay="3.00" arrival="18662.00" arrivalLane="31129765_0" arrivalPos="639.51" arrivalSpeed="18.25" duration="599.00" routeLength="12944.78" waitingTime="0.00" waitingCount="0" stopTime="20.00" timeLoss="32.99" rerouteNo="1" devices="vehroute_49 tripinfo_49 emissions_49" vType="vecType" speedFactor="0.85" vaporized="">
        <emissions CO_abs="23242.827136" CO2_abs="2461547.913647" HC_abs="160.796351" PMx_abs="44.825392" NOx_abs="894.042623" fuel_abs="785117.497724" electricity_abs="0"/>
    </tripinfo>
    <tripinfo id="93" depart="18120.00" departLane="-254758121#2_0" departPos="5.10" departSpeed="0.00" departDelay="0.00" arrival="18663.00" arrivalLane="-254758121#2_0" arrivalPos="99.35" arrivalSpeed="9.30" duration="543.00" routeLength="3841.81" waitingTime="94.00" waitingCount="3" stopTime="20.00" timeLoss="149.90" rerouteNo="3" devices="vehroute_93 tripinfo_93 emissions_93" vType="vecType" speedFactor="0.92" vaporized="">
        <emissions CO_abs="31727.475176" CO2_abs="1230734.879417" HC_abs="172.817545" PMx_abs="20.932221" NOx_abs="501.053628" fuel_abs="392556.696878" electricity_abs="0"/>
    </tripinfo>
    <tripinfo id="16" depart="18006.00" departLane="90077241_0" departPos="5.10" departSpeed="0.00" departDelay="6.00" arrival="18688.00" arrivalLane="90077241_0" arrivalPos="3225.35" arrivalSpeed="24.89" duration="682.00" routeLength="11625.26" waitingTime="80.00" waitingCount="2" stopTime="20.00" timeLoss="137.63" rerouteNo="1" devices="vehroute_16 tripinfo_16 emissions_16" vType="vecType" speedFactor="0.88" vaporized="">
        <emissions CO_abs="41292.907640" CO2_abs="2625035.659602" HC_abs="248.110198" PMx_abs="50.597870" NOx_abs="995.455673" fuel_abs="837268.611376" electricity_abs="0"/>
    </tripinfo>
    <tripinfo id="36" depart="18009.00" departLane="123867455_0" departPos="5.10" departSpeed="0.00" departDelay="9.00" arrival="18704.00" arrivalLane="123867455_0" arrivalPos="904.85" arrivalSpeed="27.95" duration="695.00" routeLength="5347.03" waitingTime="261.00" waitingCount="7" stopTime="20.00" timeLoss="341.56" rerouteNo="2" devices="vehroute_36 tripinfo_36 emissions_36" vType="vecType" speedFactor="0.97" vaporized="">
        <emissions CO_abs="66677.720545" CO2_abs="2147262.025639" HC_abs="354.439505" PMx_abs="44.649801" NOx_abs="897.320445" fuel_abs="684893.521824" electricity_abs="0"/>
    </tripinfo>
    <tripinfo id="21" depart="18000.00" departLane="27167762_0" departPos="5.10" departSpeed="0.00" departDelay="0.00" arrival="18709.00" arrivalLane="27167762_0" arrivalPos="139.02" arrivalSpeed="21.52" duration="709.00" routeLength="12026.47" waitingTime="116.00" waitingCount="6" stopTime="0.00" timeLoss="175.31" rerouteNo="4" devices="vehroute_21 tripinfo_21 emissions_21" vType="vecType" speedFactor="1.01" vaporized="">
        <emissions CO_abs="56676.858101" CO2_abs="2997510.938769" HC_abs="331.062389" PMx_abs="62.201867" NOx_abs="1159.315698" fuel_abs="956074.113167" electricity_abs="0"/>
    </tripinfo>
    <tripinfo id="31" depart="18006.00" departLane="123867455_0" departPos="5.10" departSpeed="0.00" departDelay="6.00" arrival="18726.00" arrivalLane="123867455_0" arrivalPos="904.85" arrivalSpeed="32.29" duration="720.00" routeLength="7632.90" waitingTime="132.00" waitingCount="7" stopTime="20.00" timeLoss="235.57" rerouteNo="1" devices="vehroute_31 tripinfo_31 emissions_31" vType="vecType" speedFactor="1.15" vaporized="">
        <emissions CO_abs="51095.581167" CO2_abs="2364570.179526" HC_abs="287.822355" PMx_abs="45.696460" NOx_abs="958.819767" fuel_abs="754196.574948" electricity_abs="0"/>
    </tripinfo>
    <tripinfo id="68" depart="18060.00" departLane="27167762_0" departPos="5.10" departSpeed="0.00" departDelay="0.00" arrival="18734.00" arrivalLane="27167762_0" arrivalPos="139.02" arrivalSpeed="21.82" duration="674.00" routeLength="5749.79" waitingTime="180.00" waitingCount="8" stopTime="20.00" timeLoss="270.13" rerouteNo="4" devices="vehroute_68 tripinfo_68 emissions_68" vType="vecType" speedFactor="1.04" vaporized="">
        <emissions CO_abs="55611.755122" CO2_abs="2111395.358733" HC_abs="302.802384" PMx_abs="41.800824" NOx_abs="872.699965" fuel_abs="673449.149889" electricity_abs="0"/>
    </tripinfo>
    <tripinfo id="15" depart="18000.00" departLane="-24310636#2_0" departPos="5.10" departSpeed="0.00" departDelay="0.00" arrival="18753.00" arrivalLane="-24310636#2_1" arrivalPos="108.36" arrivalSpeed="10.32" duration="753.00" routeLength="6010.81" waitingTime="129.00" waitingCount="7" stopTime="20.00" timeLoss="212.63" rerouteNo="1" devices="vehroute_15 tripinfo_15 emissions_15" vType="vecType" speedFactor="0.93" vaporized="">
        <emissions CO_abs="45017.943828" CO2_abs="1831786.144174" HC_abs="247.096001" PMx_abs="31.568673" NOx_abs="739.634545" fuel_abs="584267.442398" electricity_abs="0"/>
    </tripinfo>
    <tripinfo id="20" depart="18000.00" departLane="123867455_0" departPos="5.10" departSpeed="0.00" departDelay="0.00" arrival="18759.00" arrivalLane="123867455_0" arrivalPos="904.85" arrivalSpeed="28.72" duration="759.00" routeLength="6719.97" waitingTime="211.00" waitingCount="8" stopTime="20.00" timeLoss="293.10" rerouteNo="3" devices="vehroute_20 tripinfo_20 emissions_20" vType="vecType" speedFactor="1.02" vaporized="">
        <emissions CO_abs="59726.658628" CO2_abs="2303438.737831" HC_abs="325.768770" PMx_abs="43.814911" NOx_abs="932.399988" fuel_abs="734705.150180" electricity_abs="0"/>
    </tripinfo>
    <tripinfo id="39" depart="18006.00" departLane="31129765_0" departPos="5.10" departSpeed="0.00" departDelay="6.00" arrival="18763.00" arrivalLane="31129765_0" arrivalPos="639.51" arrivalSpeed="19.51" duration="757.00" routeLength="6254.53" waitingTime="245.00" waitingCount="7" stopTime="20.00" timeLoss="320.89" rerouteNo="3" devices="vehroute_39 tripinfo_39 emissions_39" vType="vecType" speedFactor="0.90" vaporized="">
        <emissions CO_abs="63145.248736" CO2_abs="2194471.068090" HC_abs="338.031505" PMx_abs="43.044573" NOx_abs="898.852880" fuel_abs="699950.880731" electricity_abs="0"/>
    </tripinfo>
    <tripinfo id="47" depart="18060.00" departLane="90077241_0" departPos="5.10" departSpeed="0.00" departDelay="0.00" arrival="18770.00" arrivalLane="90077241_0" arrivalPos="3225.35" arrivalSpeed="25.38" duration="710.00" routeLength="12027.49" waitingTime="53.00" waitingCount="2" stopTime="20.00" timeLoss="113.26" rerouteNo="4" devices="vehroute_47 tripinfo_47 emissions_47" vType="vecType" speedFactor="0.90" vaporized="">
        <emissions CO_abs="40284.326176" CO2_abs="2678029.161227" HC_abs="245.773300" PMx_abs="51.598480" NOx_abs="1021.451015" fuel_abs="854169.930096" electricity_abs="0"/>
    </tripinfo>
    <tripinfo id="33" depart="18000.00" departLane="144489137#0_0" departPos="5.10" departSpeed="0.00" departDelay="0.00" arrival="18781.00" arrivalLane="144489137#0_0" arrivalPos="135.49" arrivalSpeed="12.16" duration="781.00" routeLength="3872.00" waitingTime="368.00" waitingCount="14" stopTime="20.00" timeLoss="467.51" rerouteNo="1" devices="vehroute_33 tripinfo_33 emissions_33" vType="vecType" speedFactor="1.17" vaporized="">
        <emissions CO_abs="79266.369423" CO2_abs="2106749.850927" HC_abs="409.230346" PMx_abs="43.215392" NOx_abs="899.222270" fuel_abs="671979.326607" electricity_abs="0"/>
    </tripinfo>
    <tripinfo id="82" depart="18123.00" departLane="-133781749_0" departPos="5.10" departSpeed="0.00" departDelay="3.00" arrival="18784.00" arrivalLane="-133781749_0" arrivalPos="138.68" arrivalSpeed="10.47" duration="661.00" routeLength="5499.56" waitingTime="108.00" waitingCount="9" stopTime="20.00" timeLoss="211.44" rerouteNo="1" devices="vehroute_82 tripinfo_82 emissions_82" vType="vecType" speedFactor="1.02" vaporized="">
        <emissions CO_abs="42608.904003" CO2_abs="1805610.338845" HC_abs="236.055779" PMx_abs="32.314308" NOx_abs="734.873222" fuel_abs="575916.179393" electricity_abs="0"/>
    </tripinfo>
    <tripinfo id="0" depart="18000.00" departLane="84823308_0" departPos="5.10" departSpeed="0.00" departDelay="0.00" arrival="18795.00" arrivalLane="84823308_0" arrivalPos="275.63" arrivalSpeed="10.60" duration="795.00" routeLength="5711.39" waitingTime="214.00" waitingCount="6" stopTime="20.00" timeLoss="292.99" rerouteNo="4" devices="vehroute_0 tripinfo_0 emissions_0" vType="vecType" speedFactor="1.06" vaporized="">
        <emissions CO_abs="53751.012689" CO2_abs="1932988.078882" HC_abs="289.029649" PMx_abs="33.353044" NOx_abs="783.433284" fuel_abs="616550.718025" electricity_abs="0"/>
    </tripinfo>
    <tripinfo id="27" depart="18000.00" departLane="-8916048_0" departPos="5.10" departSpeed="0.00" departDelay="0.00" arrival="18797.00" arrivalLane="-8916048_0" arrivalPos="126.72" arrivalSpeed="10.44" duration="797.00" routeLength="6742.86" waitingTime="106.00" waitingCount="4" stopTime="20.00" timeLoss="199.16" rerouteNo="1" devices="vehroute_27 tripinfo_27 emissions_27" vType="vecType" speedFactor="0.95" vaporized="">
        <emissions CO_abs="43369.155562" CO2_abs="1979893.379313" HC_abs="242.712668" PMx_abs="32.966736" NOx_abs="791.005615" fuel_abs="631505.770668" electricity_abs="0"/>
    </tripinfo>
    <tripinfo id="13" depart="18003.00" departLane="90077241_0" departPos="5.10" departSpeed="0.00" departDelay="3.00" arrival="18836.00" arrivalLane="90077241_0" arrivalPos="3225.35" arrivalSpeed="32.46" duration="833.00" routeLength="12752.38" waitingTime="214.00" waitingCount="7" stopTime="20.00" timeLoss="292.78" rerouteNo="1" devices="vehroute_13 tripinfo_13 emissions_13" vType="vecType" speedFactor="1.12" vaporized="">
        <emissions CO_abs="88660.004543" CO2_abs="3716254.189673" HC_abs="495.297743" PMx_abs="83.736992" NOx_abs="1477.679459" fuel_abs="1185326.020398" electricity_abs="0"/>
    </tripinfo>
    <tripinfo id="63" depart="18063.00" departLane="-204967525_0" departPos="5.10" departSpeed="0.00" departDelay="3.00" arrival="18839.00" arrivalLane="-204967525_1" arrivalPos="146.26" arrivalSpeed="10.15" duration="776.00" routeLength="4830.14" waitingTime="215.00" waitingCount="9" stopTime="20.00" timeLoss="317.79" rerouteNo="1" devices="vehroute_63 tripinfo_63 emissions_63" vType="vecType" speedFactor="0.99" vaporized="">
        <emissions CO_abs="58091.078388" CO2_abs="1860172.892702" HC_abs="307.498622" PMx_abs="33.881275" NOx_abs="769.770366" fuel_abs="593327.086448" electricity_abs="0"/>
    </tripinfo>
    <tripinfo id="84" depart="18123.00" departLane="90077241_0" departPos="5.10" departSpeed="0.00" departDelay="3.00" arrival="18850.00" arrivalLane="90077241_0" arrivalPos="3225.35" arrivalSpeed="32.47" duration="727.00" routeLength="12280.95" waitingTime="162.00" waitingCount="5" stopTime="20.00" timeLoss="231.59" rerouteNo="1" devices="vehroute_84 tripinfo_84 emissions_84" vType="vecType" speedFactor="1.15" vaporized="">
        <emissions CO_abs="80070.803807" CO2_abs="3432345.866857" HC_abs="449.728734" PMx_abs="79.090854" NOx_abs="1361.384910" fuel_abs="1094769.365910" electricity_abs="0"/>
    </tripinfo>
    <tripinfo id="40" depart="18000.00" departLane="-206679802#4_0" departPos="5.10" departSpeed="0.00" departDelay="0.00" arrival="18862.00" arrivalLane="-206679802#4_0" arrivalPos="292.11" arrivalSpeed="10.31" duration="862.00" routeLength="6247.90" waitingTime="202.00" waitingCount="8" stopTime="20.00" timeLoss="299.14" rerouteNo="7" devices="vehroute_40 tripinfo_40 emissions_40" vType="vecType" speedFactor="1.03" vaporized="">
        <emissions CO_abs="57155.961852" CO2_abs="2129223.163269" HC_abs="309.386633" PMx_abs="37.152705" NOx_abs="867.807544" fuel_abs="679140.436271" electricity_abs="0"/>
    </tripinfo>
    <tripinfo id="64" depart="18060.00" departLane="28319343#2_0" departPos="5.10" departSpeed="0.00" departDelay="0.00" arrival="18872.00" arrivalLane="28319343#2_0" arrivalPos="90.58" arrivalSpeed="9.71" duration="812.00" routeLength="9974.14" waitingTime="215.00" waitingCount="8" stopTime="0.00" timeLoss="284.86" rerouteNo="1" devices="vehroute_64 tripinfo_64 emissions_64" vType="vecType" speedFactor="0.94" vaporized="">
        <emissions CO_abs="65179.905443" CO2_abs="2748495.556505" HC_abs="361.133914" PMx_abs="54.706541" NOx_abs="1084.704731" fuel_abs="876656.940252" electricity_abs="0"/>
    </tripinfo>
    <tripinfo id="73" depart="18120.00" departLane="-204967525_0" departPos="5.10" departSpeed="0.00" departDelay="0.00" arrival="18879.00" arrivalLane="-204967525_1" arrivalPos="146.26" arrivalSpeed="11.58" duration="759.00" routeLength="5090.57" waitingTime="215.00" waitingCount="8" stopTime="20.00" timeLoss="307.12" rerouteNo="1" devices="vehroute_73 tripinfo_73 emissions_73" vType="vecType" speedFactor="1.06" vaporized="">
        <emissions CO_abs="57348.971609" CO2_abs="1964921.023018" HC_abs="306.582851" PMx_abs="36.427340" NOx_abs="815.305627" fuel_abs="626734.787659" electricity_abs="0"/>
    </tripinfo>
    <tripinfo id="42" depart="18009.00" departLane="31129765_0" departPos="5.10" departSpeed="0.00" departDelay="9.00" arrival="18891.00" arrivalLane="31129765_0" arrivalPos="639.51" arrivalSpeed="23.95" duration="882.00" routeLength="7763.38" waitingTime="275.00" waitingCount="12" stopTime="20.00" timeLoss="393.44" rerouteNo="1" devices="vehroute_42 tripinfo_42 emissions_42" vType="vecType" speedFactor="1.09" vaporized="">
        <emissions CO_abs="77569.886284" CO2_abs="2821498.772645" HC_abs="419.248901" PMx_abs="56.956560" NOx_abs="1161.830794" fuel_abs="899944.828589" electricity_abs="0"/>
    </tripinfo>
    <tripinfo id="85" depart="18126.00" departLane="90077241_0" departPos="5.10" departSpeed="0.00" departDelay="6.00" arrival="18891.00" arrivalLane="90077241_0" arrivalPos="3225.35" arrivalSpeed="27.25" duration="765.00" routeLength="11984.76" waitingTime="148.00" waitingCount="6" stopTime="20.00" timeLoss="215.73" rerouteNo="1" devices="vehroute_85 tripinfo_85 emissions_85" vType="vecType" speedFactor="0.98" vaporized="">
        <emissions CO_abs="61534.963188" CO2_abs="3033739.592037" HC_abs="353.578915" PMx_abs="63.185712" NOx_abs="1184.106078" fuel_abs="967631.033957" electricity_abs="0"/>
    </tripinfo>
    <tripinfo id="29" depart="18000.00" departLane="-35977367#2_0" departPos="5.10" departSpeed="0.00" departDelay="0.00" arrival="18899.00" arrivalLane="-35977367#2_0" arrivalPos="431.73" arrivalSpeed="10.07" duration="899.00" routeLength="6070.29" waitingTime="195.00" waitingCount="8" stopTime="20.00" timeLoss="295.16" rerouteNo="3" devices="vehroute_29 tripinfo_29 emissions_29" vType="vecType" speedFactor="0.93" vaporized="">
        <emissions CO_abs="58583.332153" CO2_abs="2110583.157261" HC_abs="315.299942" PMx_abs="36.131749" NOx_abs="859.905228" fuel_abs="673196.629490" electricity_abs="0"/>
    </tripinfo>
    <tripinfo id="25" depart="18003.00" departLane="-23883761_0" departPos="5.10" departSpeed="0.00" departDelay="3.00" arrival="18904.00" arrivalLane="-23883761_0" arrivalPos="197.88" arrivalSpeed="9.45" duration="901.00" routeLength="5896.49" waitingTime="176.00" waitingCount="12" stopTime="20.00" timeLoss="276.38" rerouteNo="2" devices="vehroute_25 tripinfo_25 emissions_25" vType="vecType" speedFactor="0.87" vaporized="">
        <emissions CO_abs="56548.655972" CO2_abs="1964792.995575" HC_abs="302.458037" PMx_abs="32.907631" NOx_abs="797.416647" fuel_abs="626697.025186" electricity_abs="0"/>
    </tripinfo>
    <tripinfo id="10" depart="18000.00" departLane="90077241_0" departPos="5.10" departSpeed="0.00" departDelay="0.00" arrival="18906.00" arrivalLane="90077241_0" arrivalPos="3225.35" arrivalSpeed="31.53" duration="906.00" routeLength="12917.03" waitingTime="242.00" waitingCount="9" stopTime="20.00" timeLoss="336.69" rerouteNo="5" devices="vehroute_10 tripinfo_10 emissions_10" vType="vecType" speedFactor="1.09" vaporized="">
        <emissions CO_abs="92819.539235" CO2_abs="3811067.060570" HC_abs="516.187711" PMx_abs="84.567803" NOx_abs="1521.266698" fuel_abs="1215568.843849" electricity_abs="0"/>
    </tripinfo>
    <tripinfo id="99" depart="18180.00" departLane="-27029204_0" departPos="5.10" departSpeed="0.00" departDelay="0.00" arrival="18919.00" arrivalLane="-27029204_0" arrivalPos="195.60" arrivalSpeed="11.82" duration="739.00" routeLength="5700.35" waitingTime="210.00" waitingCount="9" stopTime="20.00" timeLoss="305.00" rerouteNo="1" devices="vehroute_99 tripinfo_99 emissions_99" vType="vecType" speedFactor="1.10" vaporized="">
        <emissions CO_abs="57632.324120" CO2_abs="2101623.708969" HC_abs="310.883076" PMx_abs="39.659206" NOx_abs="865.857164" fuel_abs="670335.334233" electricity_abs="0"/>
    </tripinfo>
    <tripinfo id="88" depart="18123.00" departLane="31129765_0" departPos="5.10" departSpeed="0.00" departDelay="3.00" arrival="18929.00" arrivalLane="31129765_0" arrivalPos="639.51" arrivalSpeed="21.27" duration="806.00" routeLength="6946.37" waitingTime="257.00" waitingCount="9" stopTime="20.00" timeLoss="351.83" rerouteNo="1" devices="vehroute_88 tripinfo_88 emissions_88" vType="vecType" speedFactor="1.01" vaporized="">
        <emissions CO_abs="70210.239091" CO2_abs="2494055.828045" HC_abs="378.082434" PMx_abs="49.963420" NOx_abs="1026.650914" fuel_abs="795504.937624" electricity_abs="0"/>
    </tripinfo>
    <tripinfo id="2" depart="18000.00" departLane="142972028#1_0" departPos="5.10" departSpeed="0.00" departDelay="0.00" arrival="18938.00" arrivalLane="142972028#1_0" arrivalPos="161.20" arrivalSpeed="11.02" duration="938.00" routeLength="6951.71" waitingTime="235.00" waitingCount="14" stopTime="20.00" timeLoss="360.49" rerouteNo="2" devices="vehroute_2 tripinfo_2 emissions_2" vType="vecType" speedFactor="1.01" vaporized="">
        <emissions CO_abs="67923.607676" CO2_abs="2447237.503109" HC_abs="365.947370" PMx_abs="44.575208" NOx_abs="1002.631104" fuel_abs="780574.519338" electricity_abs="0"/>
    </tripinfo>
    <tripinfo id="51" depart="18063.00" departLane="8915254_0" departPos="5.10" departSpeed="0.00" departDelay="3.00" arrival="18939.00" arrivalLane="8915254_0" arrivalPos="317.12" arrivalSpeed="25.11" duration="876.00" routeLength="8020.18" waitingTime="163.00" waitingCount="11" stopTime="20.00" timeLoss="313.64" rerouteNo="6" devices="vehroute_51 tripinfo_51 emissions_51" vType="vecType" speedFactor="1.17" vaporized="">
        <emissions CO_abs="60980.826379" CO2_abs="2741901.734708" HC_abs="341.019637" PMx_abs="50.934932" NOx_abs="1118.809768" fuel_abs="874551.074922" electricity_abs="0"/>
    </tripinfo>
    <tripinfo id="24" depart="18003.00" departLane="123867455_0" departPos="5.10" departSpeed="0.00" departDelay="3.00" arrival="18951.00" arrivalLane="123867455_0" arrivalPos="904.85" arrivalSpeed="23.00" duration="948.00" routeLength="6219.34" waitingTime="299.00" waitingCount="12" stopTime="20.00" timeLoss="409.91" rerouteNo="2" devices="vehroute_24 tripinfo_24 emissions_24" vType="vecType" speedFactor="0.83" vaporized="">
        <emissions CO_abs="82287.159678" CO2_abs="2522487.945461" HC_abs="433.060155" PMx_abs="49.539064" NOx_abs="1047.970033" fuel_abs="804580.723733" electricity_abs="0"/>
    </tripinfo>
    <tripinfo id="43" depart="18012.00" departLane="123867455_0" departPos="5.10" departSpeed="0.00" departDelay="12.00" arrival="18957.00" arrivalLane="123867455_0" arrivalPos="904.85" arrivalSpeed="28.98" duration="945.00" routeLength="8280.56" waitingTime="220.00" waitingCount="11" stopTime="20.00" timeLoss="352.67" rerouteNo="2" devices="vehroute_43 tripinfo_43 emissions_43" vType="vecType" speedFactor="1.04" vaporized="">
        <emissions CO_abs="71210.665590" CO2_abs="2837926.133437" HC_abs="390.587267" PMx_abs="54.226943" NOx_abs="1160.701611" fuel_abs="905182.859250" electricity_abs="0"/>
    </tripinfo>
    <tripinfo id="90" depart="18120.00" departLane="-254758120#3_0" departPos="5.10" departSpeed="0.00" departDelay="0.00" arrival="18957.00" arrivalLane="-254758120#3_0" arrivalPos="147.41" arrivalSpeed="11.22" duration="837.00" routeLength="5221.94" waitingTime="270.00" waitingCount="11" stopTime="20.00" timeLoss="356.72" rerouteNo="1" devices="vehroute_90 tripinfo_90 emissions_90" vType="vecType" speedFactor="1.02" vaporized="">
        <emissions CO_abs="64723.888112" CO2_abs="1999657.007058" HC_abs="340.919685" PMx_abs="36.834349" NOx_abs="828.356885" fuel_abs="637818.530698" electricity_abs="0"/>
    </tripinfo>
    <tripinfo id="3" depart="18000.00" departLane="-133781749_0" departPos="5.10" departSpeed="0.00" departDelay="0.00" arrival="18958.00" arrivalLane="-133781749_0" arrivalPos="138.68" arrivalSpeed="12.09" duration="958.00" routeLength="7501.04" waitingTime="223.00" waitingCount="15" stopTime="20.00" timeLoss="369.46" rerouteNo="1" devices="vehroute_3 tripinfo_3 emissions_3" vType="vecType" speedFactor="1.08" vaporized="">
        <emissions CO_abs="69509.395785" CO2_abs="2669866.743107" HC_abs="378.306108" PMx_abs="49.744829" NOx_abs="1100.118596" fuel_abs="851580.566051" electricity_abs="0"/>
    </tripinfo>
    <tripinfo id="75" depart="18120.00" departLane="-254297762#2_0" departPos="5.10" departSpeed="0.00" departDelay="0.00" arrival="18961.00" arrivalLane="-254297762#2_0" arrivalPos="291.17" arrivalSpeed="10.20" duration="841.00" routeLength="5758.38" waitingTime="194.00" waitingCount="11" stopTime="20.00" timeLoss="298.05" rerouteNo="2" devices="vehroute_75 tripinfo_75 emissions_75" vType="vecType" speedFactor="0.98" vaporized="">
        <emissions CO_abs="57405.386100" CO2_abs="2046609.266591" HC_abs="308.626658" PMx_abs="35.904916" NOx_abs="837.686872" fuel_abs="652790.927275" electricity_abs="0"/>
    </tripinfo>
    <tripinfo id="9" depart="18000.00" departLane="23959829#0_0" departPos="5.10" departSpeed="0.00" departDelay="0.00" arrival="18967.00" arrivalLane="23959829#0_0" arrivalPos="45.86" arrivalSpeed="8.42" duration="967.00" routeLength="6745.88" waitingTime="199.00" waitingCount="9" stopTime="20.00" timeLoss="307.31" rerouteNo="2" devices="vehroute_9 tripinfo_9 emissions_9" vType="vecType" speedFactor="0.86" vaporized="">
        <emissions CO_abs="63152.751007" CO2_abs="2265074.777781" HC_abs="339.320293" PMx_abs="39.264362" NOx_abs="921.883219" fuel_abs="722473.454013" electricity_abs="0"/>
    </tripinfo>
    <tripinfo id="56" depart="18066.00" departLane="31129765_0" departPos="5.10" departSpeed="0.00" departDelay="6.00" arrival="18970.00" arrivalLane="31129765_0" arrivalPos="639.51" arrivalSpeed="20.03" duration="904.00" routeLength="13447.31" waitingTime="168.00" waitingCount="5" stopTime="0.00" timeLoss="238.95" rerouteNo="4" devices="vehroute_56 tripinfo_56 emissions_56" vType="vecType" speedFactor="0.90" vaporized="">
        <emissions CO_abs="61076.599677" CO2_abs="3249537.986933" HC_abs="353.457808" PMx_abs="62.256175" NOx_abs="1245.662241" fuel_abs="1036462.710269" electricity_abs="0"/>
    </tripinfo>
    <tripinfo id="41" depart="18003.00" departLane="144489137#0_0" departPos="5.10" departSpeed="0.00" departDelay="3.00" arrival="18974.00" arrivalLane="144489137#0_0" arrivalPos="135.49" arrivalSpeed="10.18" duration="971.00" routeLength="5119.82" waitingTime="367.00" waitingCount="16" stopTime="20.00" timeLoss="475.87" rerouteNo="1" devices="vehroute_41 tripinfo_41 emissions_41" vType="vecType" speedFactor="0.96" vaporized="">
        <emissions CO_abs="85627.428596" CO2_abs="2360736.199763" HC_abs="444.518735" PMx_abs="45.548168" NOx_abs="994.069506" fuel_abs="752993.056167" electricity_abs="0"/>
    </tripinfo>