<?xml version="1.0" encoding="UTF-8"?>

<!-- generated on 2023-01-10 23:39:29 by Eclipse SUMO sumo Version 1.14.1
<configuration xmlns:xsi="http://www.w3.org/2001/XMLSchema-instance" xsi:noNamespaceSchemaLocation="http://sumo.dlr.de/xsd/sumoConfiguration.xsd">

    <input>
        <net-file value="./strategia1_config/../san_francisco.net.xml"/>
        <route-files value="./strategia1_config/../san_francisco.rou.xml"/>
        <additional-files value="./strategia1_config/../san_francisco.poly.xml,./strategia1_config/../parking_capacity_50%25/off_parking_50%25.add.xml,./strategia1_config/../parking_capacity_50%25/on_parking_50%25.add.xml"/>
    </input>

    <output>
        <emission-output value="./strategia1_config/../output/strategia1/50%25/emissions.xml"/>
        <tripinfo-output value="./strategia1_config/../output/strategia1/50%25/tripinfo.xml"/>
        <vehroute-output value="./strategia1_config/../output/strategia1/50%25/vehroute.xml"/>
        <stop-output value="./strategia1_config/../output/strategia1/50%25/stops.xml"/>
        <collision-output value="./strategia1_config/../output/strategia1/50%25/collision.xml"/>
        <statistic-output value="./strategia1_config/../output/strategia1/50%25/statistic.xml"/>
    </output>

    <time>
        <step-length value="1"/>
    </time>

    <processing>
        <ignore-route-errors value="false"/>
    </processing>

    <report>
        <verbose value="true"/>
        <xml-validation value="never"/>
    </report>

    <traci_server>
        <remote-port value="51916"/>
    </traci_server>

    <gui_only>
        <gui-settings-file value="./strategia1_config/../gui-settings.cfg"/>
        <start value="true"/>
    </gui_only>

</configuration>
-->

<tripinfos xmlns:xsi="http://www.w3.org/2001/XMLSchema-instance" xsi:noNamespaceSchemaLocation="http://sumo.dlr.de/xsd/tripinfo_file.xsd">
    <tripinfo id="116" depart="18240.00" departLane="48211196#5_0" departPos="5.10" departSpeed="0.00" departDelay="0.00" arrival="18834.00" arrivalLane="-8916792_0" arrivalPos="615.11" arrivalSpeed="12.26" duration="594.00" routeLength="5413.78" waitingTime="96.00" waitingCount="4" stopTime="0.00" timeLoss="160.92" rerouteNo="0" devices="vehroute_116 tripinfo_116 emissions_116" vType="vecType" speedFactor="1.12" vaporized="">
        <emissions CO_abs="32208.637823" CO2_abs="1560777.119419" HC_abs="181.758887" PMx_abs="25.565163" NOx_abs="620.642589" fuel_abs="497823.971647" electricity_abs="0"/>
    </tripinfo>
    <tripinfo id="64" depart="18060.00" departLane="28319343#2_0" departPos="5.10" departSpeed="0.00" departDelay="0.00" arrival="18872.00" arrivalLane="28319343#2_0" arrivalPos="90.58" arrivalSpeed="9.80" duration="812.00" routeLength="9974.14" waitingTime="221.00" waitingCount="8" stopTime="0.00" timeLoss="285.36" rerouteNo="1" devices="vehroute_64 tripinfo_64 emissions_64" vType="vecType" speedFactor="0.94" vaporized="">
        <emissions CO_abs="65069.924701" CO2_abs="2752506.540150" HC_abs="360.590674" PMx_abs="54.400128" NOx_abs="1080.932033" fuel_abs="877936.821824" electricity_abs="0"/>
    </tripinfo>
    <tripinfo id="71" depart="18120.00" departLane="52432938#0_0" departPos="5.10" departSpeed="0.00" departDelay="0.00" arrival="19059.00" arrivalLane="52432938#0_1" arrivalPos="69.49" arrivalSpeed="9.68" duration="939.00" routeLength="10567.87" waitingTime="326.00" waitingCount="9" stopTime="0.00" timeLoss="412.44" rerouteNo="1" devices="vehroute_71 tripinfo_71 emissions_71" vType="vecType" speedFactor="0.97" vaporized="">
        <emissions CO_abs="87922.042038" CO2_abs="3289988.991450" HC_abs="478.502324" PMx_abs="68.157432" NOx_abs="1319.282519" fuel_abs="1049374.377166" electricity_abs="0"/>
    </tripinfo>
    <tripinfo id="94" depart="18120.00" departLane="254758124#0_0" departPos="5.10" departSpeed="0.00" departDelay="0.00" arrival="19248.00" arrivalLane="254758124#0_1" arrivalPos="106.41" arrivalSpeed="11.22" duration="1128.00" routeLength="12426.75" waitingTime="381.00" waitingCount="15" stopTime="0.00" timeLoss="505.95" rerouteNo="1" devices="vehroute_94 tripinfo_94 emissions_94" vType="vecType" speedFactor="1.09" vaporized="">
        <emissions CO_abs="112443.142021" CO2_abs="4080861.408845" HC_abs="610.147268" PMx_abs="87.158792" NOx_abs="1652.670966" fuel_abs="1301630.447641" electricity_abs="0"/>
    </tripinfo>
    <tripinfo id="228" depart="19080.00" departLane="144489137#3_0" departPos="5.10" departSpeed="0.00" departDelay="0.00" arrival="19391.00" arrivalLane="254756525#26_0" arrivalPos="121.81" arrivalSpeed="9.04" duration="311.00" routeLength="1438.30" waitingTime="132.00" waitingCount="5" stopTime="0.00" timeLoss="164.78" rerouteNo="0" devices="vehroute_228 tripinfo_228 emissions_228" vType="vecType" speedFactor="0.88" vaporized="">
        <emissions CO_abs="29888.970086" CO2_abs="755790.524725" HC_abs="153.600745" PMx_abs="15.011941" NOx_abs="321.927410" fuel_abs="241072.004066" electricity_abs="0"/>
    </tripinfo>
    <tripinfo id="241" depart="19440.00" departLane="288065247#6_0" departPos="5.10" departSpeed="0.00" departDelay="0.00" arrival="19562.00" arrivalLane="254756525#26_0" arrivalPos="121.81" arrivalSpeed="10.50" duration="122.00" routeLength="910.21" waitingTime="31.00" waitingCount="1" stopTime="0.00" timeLoss="43.27" rerouteNo="0" devices="vehroute_241 tripinfo_241 emissions_241" vType="vecType" speedFactor="1.04" vaporized="">
        <emissions CO_abs="8234.256676" CO2_abs="300454.709061" HC_abs="44.384702" PMx_abs="5.103878" NOx_abs="121.464466" fuel_abs="95833.780944" electricity_abs="0"/>
    </tripinfo>
    <tripinfo id="59" depart="18063.00" departLane="-27029200#2_0" departPos="5.10" departSpeed="0.00" departDelay="3.00" arrival="19931.00" arrivalLane="-27029200#2_0" arrivalPos="66.62" arrivalSpeed="10.51" duration="1868.00" routeLength="7541.41" waitingTime="159.00" waitingCount="10" stopTime="961.00" timeLoss="268.20" rerouteNo="3" devices="vehroute_59 tripinfo_59 emissions_59" vType="vecType" speedFactor="0.97" vaporized="">
        <emissions CO_abs="54696.287315" CO2_abs="2290450.726720" HC_abs="301.793089" PMx_abs="39.070571" NOx_abs="921.948674" fuel_abs="730562.862148" electricity_abs="0"/>
    </tripinfo>
    <tripinfo id="177" depart="18600.00" departLane="-30029708#0_0" departPos="5.10" departSpeed="0.00" departDelay="0.00" arrival="19945.00" arrivalLane="-30029708#0_1" arrivalPos="94.58" arrivalSpeed="9.70" duration="1345.00" routeLength="13187.08" waitingTime="355.00" waitingCount="14" stopTime="0.00" timeLoss="481.11" rerouteNo="1" devices="vehroute_177 tripinfo_177 emissions_177" vType="vecType" speedFactor="0.90" vaporized="">
        <emissions CO_abs="102082.596719" CO2_abs="3920345.799584" HC_abs="555.837843" PMx_abs="74.566964" NOx_abs="1566.870099" fuel_abs="1250435.606822" electricity_abs="0"/>
    </tripinfo>
    <tripinfo id="90" depart="18120.00" departLane="-254758120#3_0" departPos="5.10" departSpeed="0.00" departDelay="0.00" arrival="19947.00" arrivalLane="-254758120#3_0" arrivalPos="147.41" arrivalSpeed="10.90" duration="1827.00" routeLength="5221.94" waitingTime="286.00" waitingCount="10" stopTime="991.00" timeLoss="375.68" rerouteNo="2" devices="vehroute_90 tripinfo_90 emissions_90" vType="vecType" speedFactor="1.02" vaporized="">
        <emissions CO_abs="67700.590086" CO2_abs="2045563.316550" HC_abs="355.494622" PMx_abs="37.790803" NOx_abs="847.765472" fuel_abs="652461.861719" electricity_abs="0"/>
    </tripinfo>
    <tripinfo id="3" depart="18000.00" departLane="-133781749_0" departPos="5.10" departSpeed="0.00" departDelay="0.00" arrival="19949.00" arrivalLane="-133781749_0" arrivalPos="138.68" arrivalSpeed="11.27" duration="1949.00" routeLength="7501.04" waitingTime="214.00" waitingCount="13" stopTime="1044.00" timeLoss="335.72" rerouteNo="2" devices="vehroute_3 tripinfo_3 emissions_3" vType="vecType" speedFactor="1.08" vaporized="">
        <emissions CO_abs="64794.747661" CO2_abs="2555122.031647" HC_abs="353.892803" PMx_abs="46.765795" NOx_abs="1044.649290" fuel_abs="814981.647391" electricity_abs="0"/>
    </tripinfo>
    <tripinfo id="12" depart="18000.00" departLane="-23883761_0" departPos="5.10" departSpeed="0.00" departDelay="0.00" arrival="19964.00" arrivalLane="-23883761_0" arrivalPos="197.88" arrivalSpeed="11.46" duration="1964.00" routeLength="5849.00" waitingTime="301.00" waitingCount="11" stopTime="1056.00" timeLoss="408.30" rerouteNo="2" devices="vehroute_12 tripinfo_12 emissions_12" vType="vecType" speedFactor="1.05" vaporized="">
        <emissions CO_abs="73576.815444" CO2_abs="2326192.114269" HC_abs="388.776755" PMx_abs="43.162436" NOx_abs="965.091461" fuel_abs="741970.070571" electricity_abs="0"/>
    </tripinfo>
    <tripinfo id="243" depart="19440.00" departLane="-48211196#4_0" departPos="5.10" departSpeed="0.00" departDelay="0.00" arrival="20173.00" arrivalLane="133755930#1_0" arrivalPos="16.00" arrivalSpeed="10.67" duration="733.00" routeLength="4088.09" waitingTime="281.00" waitingCount="10" stopTime="0.00" timeLoss="357.16" rerouteNo="0" devices="vehroute_243 tripinfo_243 emissions_243" vType="vecType" speedFactor="0.97" vaporized="">
        <emissions CO_abs="64532.654363" CO2_abs="1818370.724767" HC_abs="335.943123" PMx_abs="34.739274" NOx_abs="763.094556" fuel_abs="579996.794440" electricity_abs="0"/>
    </tripinfo>
    <tripinfo id="302" depart="19800.00" departLane="-254758139#0_0" departPos="5.10" departSpeed="0.00" departDelay="0.00" arrival="20229.00" arrivalLane="-254758139#0_0" arrivalPos="68.19" arrivalSpeed="10.10" duration="429.00" routeLength="9394.24" waitingTime="6.00" waitingCount="1" stopTime="0.00" timeLoss="37.77" rerouteNo="1" devices="vehroute_302 tripinfo_302 emissions_302" vType="vecType" speedFactor="0.93" vaporized="">
        <emissions CO_abs="22440.652411" CO2_abs="1927235.820405" HC_abs="147.242775" PMx_abs="37.416144" NOx_abs="713.471396" fuel_abs="614698.051257" electricity_abs="0"/>
    </tripinfo>
    <tripinfo id="19" depart="18000.00" departLane="254396707#6_0" departPos="5.10" departSpeed="0.00" departDelay="0.00" arrival="20353.00" arrivalLane="254396707#6_0" arrivalPos="139.12" arrivalSpeed="12.29" duration="2353.00" routeLength="6100.25" waitingTime="472.00" waitingCount="20" stopTime="1275.00" timeLoss="609.31" rerouteNo="2" devices="vehroute_19 tripinfo_19 emissions_19" vType="vecType" speedFactor="1.16" vaporized="">
        <emissions CO_abs="105231.107964" CO2_abs="2954131.800078" HC_abs="546.737460" PMx_abs="59.107293" NOx_abs="1250.278998" fuel_abs="942262.472279" electricity_abs="0"/>
    </tripinfo>
    <tripinfo id="313" depart="19920.00" departLane="-111089307#4_0" departPos="5.10" departSpeed="0.00" departDelay="0.00" arrival="20415.00" arrivalLane="52432936#0_0" arrivalPos="124.42" arrivalSpeed="8.86" duration="495.00" routeLength="2900.94" waitingTime="153.00" waitingCount="4" stopTime="0.00" timeLoss="201.85" rerouteNo="0" devices="vehroute_313 tripinfo_313 emissions_313" vType="vecType" speedFactor="0.89" vaporized="">
        <emissions CO_abs="38405.527310" CO2_abs="1146621.715924" HC_abs="201.292224" PMx_abs="20.934277" NOx_abs="476.269795" fuel_abs="365731.834909" electricity_abs="0"/>
    </tripinfo>
    <tripinfo id="155" depart="18480.00" departLane="-133755930#1_0" departPos="5.10" departSpeed="0.00" departDelay="0.00" arrival="20441.00" arrivalLane="-133755930#1_1" arrivalPos="16.00" arrivalSpeed="11.05" duration="1961.00" routeLength="4091.91" waitingTime="273.00" waitingCount="9" stopTime="1275.00" timeLoss="353.62" rerouteNo="2" devices="vehroute_155 tripinfo_155 emissions_155" vType="vecType" speedFactor="1.10" vaporized="">
        <emissions CO_abs="61637.941263" CO2_abs="1799277.460599" HC_abs="322.014250" PMx_abs="34.830419" NOx_abs="754.734655" fuel_abs="573905.003090" electricity_abs="0"/>
    </tripinfo>
    <tripinfo id="300" depart="19800.00" departLane="-242896157#0_0" departPos="5.10" departSpeed="0.00" departDelay="0.00" arrival="20447.00" arrivalLane="204967525_0" arrivalPos="146.26" arrivalSpeed="9.82" duration="647.00" routeLength="3515.10" waitingTime="225.00" waitingCount="10" stopTime="0.00" timeLoss="295.32" rerouteNo="0" devices="vehroute_300 tripinfo_300 emissions_300" vType="vecType" speedFactor="0.90" vaporized="">
        <emissions CO_abs="54394.908324" CO2_abs="1534788.875894" HC_abs="283.091926" PMx_abs="28.749371" NOx_abs="642.100547" fuel_abs="489544.531063" electricity_abs="0"/>
    </tripinfo>
    <tripinfo id="312" depart="19860.00" departLane="8922307_0" departPos="5.10" departSpeed="0.00" departDelay="0.00" arrival="20462.00" arrivalLane="254756525#26_0" arrivalPos="121.81" arrivalSpeed="9.43" duration="602.00" routeLength="3140.72" waitingTime="238.00" waitingCount="7" stopTime="0.00" timeLoss="292.29" rerouteNo="0" devices="vehroute_312 tripinfo_312 emissions_312" vType="vecType" speedFactor="0.91" vaporized="">
        <emissions CO_abs="53721.561125" CO2_abs="1442225.718689" HC_abs="277.940044" PMx_abs="27.649790" NOx_abs="606.969922" fuel_abs="460021.064507" electricity_abs="0"/>
    </tripinfo>
    <tripinfo id="49" depart="18063.00" departLane="31129765_0" departPos="5.10" departSpeed="0.00" departDelay="3.00" arrival="20480.00" arrivalLane="31129765_0" arrivalPos="639.51" arrivalSpeed="18.00" duration="2417.00" routeLength="12944.78" waitingTime="0.00" waitingCount="0" stopTime="1838.00" timeLoss="32.84" rerouteNo="2" devices="vehroute_49 tripinfo_49 emissions_49" vType="vecType" speedFactor="0.85" vaporized="">
        <emissions CO_abs="23212.886325" CO2_abs="2465284.049163" HC_abs="161.197312" PMx_abs="45.135683" NOx_abs="898.571472" fuel_abs="786308.897667" electricity_abs="0"/>
    </tripinfo>
    <tripinfo id="156" depart="18486.00" departLane="-35977367#2_0" departPos="5.10" departSpeed="0.00" departDelay="6.00" arrival="20508.00" arrivalLane="-35977367#2_0" arrivalPos="431.73" arrivalSpeed="12.28" duration="2022.00" routeLength="5429.40" waitingTime="93.00" waitingCount="6" stopTime="1355.00" timeLoss="259.52" rerouteNo="2" devices="vehroute_156 tripinfo_156 emissions_156" vType="vecType" speedFactor="1.19" vaporized="">
        <emissions CO_abs="40313.949637" CO2_abs="1794818.135543" HC_abs="224.389573" PMx_abs="31.772129" NOx_abs="735.118044" fuel_abs="572472.333125" electricity_abs="0"/>
    </tripinfo>
    <tripinfo id="89" depart="18126.00" departLane="31129765_0" departPos="5.10" departSpeed="0.00" departDelay="6.00" arrival="20516.00" arrivalLane="31129765_0" arrivalPos="639.51" arrivalSpeed="22.09" duration="2390.00" routeLength="8014.77" waitingTime="247.00" waitingCount="8" stopTime="1523.00" timeLoss="345.37" rerouteNo="2" devices="vehroute_89 tripinfo_89 emissions_89" vType="vecType" speedFactor="1.02" vaporized="">
        <emissions CO_abs="69905.988660" CO2_abs="2661589.688789" HC_abs="380.550871" PMx_abs="51.546365" NOx_abs="1084.739689" fuel_abs="848940.467265" electricity_abs="0"/>
    </tripinfo>
    <tripinfo id="322" depart="20040.00" departLane="99231460_0" departPos="5.10" departSpeed="0.00" departDelay="0.00" arrival="20524.00" arrivalLane="-8916792_0" arrivalPos="615.11" arrivalSpeed="9.97" duration="484.00" routeLength="3547.42" waitingTime="121.00" waitingCount="3" stopTime="0.00" timeLoss="161.59" rerouteNo="0" devices="vehroute_322 tripinfo_322 emissions_322" vType="vecType" speedFactor="0.99" vaporized="">
        <emissions CO_abs="32093.318943" CO2_abs="1172619.063816" HC_abs="173.153743" PMx_abs="20.172894" NOx_abs="476.619884" fuel_abs="374021.130574" electricity_abs="0"/>
    </tripinfo>
    <tripinfo id="25" depart="18003.00" departLane="-23883761_0" departPos="5.10" departSpeed="0.00" departDelay="3.00" arrival="20525.00" arrivalLane="-23883761_0" arrivalPos="197.88" arrivalSpeed="8.95" duration="2522.00" routeLength="5896.49" waitingTime="185.00" waitingCount="11" stopTime="1629.00" timeLoss="288.22" rerouteNo="3" devices="vehroute_25 tripinfo_25 emissions_25" vType="vecType" speedFactor="0.87" vaporized="">
        <emissions CO_abs="57899.908162" CO2_abs="1972094.311108" HC_abs="308.849244" PMx_abs="33.596852" NOx_abs="804.259416" fuel_abs="629025.942585" electricity_abs="0"/>
    </tripinfo>
    <tripinfo id="318" depart="19980.00" departLane="-88572970_0" departPos="5.10" departSpeed="0.00" departDelay="0.00" arrival="20531.00" arrivalLane="-88572970_1" arrivalPos="108.68" arrivalSpeed="12.23" duration="551.00" routeLength="9249.43" waitingTime="112.00" waitingCount="6" stopTime="0.00" timeLoss="165.69" rerouteNo="1" devices="vehroute_318 tripinfo_318 emissions_318" vType="vecType" speedFactor="1.11" vaporized="">
        <emissions CO_abs="54170.619018" CO2_abs="2498662.190472" HC_abs="308.140002" PMx_abs="55.249108" NOx_abs="981.402806" fuel_abs="796964.366466" electricity_abs="0"/>
    </tripinfo>
    <tripinfo id="323" depart="20040.00" departLane="254466686#4_0" departPos="5.10" departSpeed="0.00" departDelay="0.00" arrival="20537.00" arrivalLane="204967525_0" arrivalPos="146.26" arrivalSpeed="9.99" duration="497.00" routeLength="2439.11" waitingTime="212.00" waitingCount="6" stopTime="0.00" timeLoss="260.45" rerouteNo="0" devices="vehroute_323 tripinfo_323 emissions_323" vType="vecType" speedFactor="0.92" vaporized="">
        <emissions CO_abs="46857.694431" CO2_abs="1210482.516457" HC_abs="241.371478" PMx_abs="23.689556" NOx_abs="512.458206" fuel_abs="386103.431547" electricity_abs="0"/>
    </tripinfo>
    <tripinfo id="174" depart="18552.00" departLane="90077241_0" departPos="5.10" departSpeed="0.00" departDelay="12.00" arrival="20644.00" arrivalLane="90077241_0" arrivalPos="3225.35" arrivalSpeed="27.54" duration="2092.00" routeLength="13531.94" waitingTime="144.00" waitingCount="7" stopTime="1146.00" timeLoss="243.73" rerouteNo="3" devices="vehroute_174 tripinfo_174 emissions_174" vType="vecType" speedFactor="0.99" vaporized="">
        <emissions CO_abs="70621.120093" CO2_abs="3437492.738022" HC_abs="404.300670" PMx_abs="69.748095" NOx_abs="1339.978129" fuel_abs="1096412.683094" electricity_abs="0"/>
    </tripinfo>
    <tripinfo id="311" depart="19860.00" departLane="204884387#0_0" departPos="5.10" departSpeed="0.00" departDelay="0.00" arrival="20660.00" arrivalLane="204884387#0_0" arrivalPos="132.79" arrivalSpeed="9.76" duration="800.00" routeLength="10123.88" waitingTime="214.00" waitingCount="8" stopTime="0.00" timeLoss="288.41" rerouteNo="1" devices="vehroute_311 tripinfo_311 emissions_311" vType="vecType" speedFactor="0.99" vaporized="">
        <emissions CO_abs="67446.278985" CO2_abs="2865892.244581" HC_abs="375.522363" PMx_abs="58.374634" NOx_abs="1133.784863" fuel_abs="914100.594586" electricity_abs="0"/>
    </tripinfo>
    <tripinfo id="326" depart="20100.00" departLane="88466052#1_0" departPos="5.10" departSpeed="0.00" departDelay="0.00" arrival="20719.00" arrivalLane="88466052#1_0" arrivalPos="202.96" arrivalSpeed="12.46" duration="619.00" routeLength="9458.72" waitingTime="149.00" waitingCount="8" stopTime="0.00" timeLoss="217.79" rerouteNo="1" devices="vehroute_326 tripinfo_326 emissions_326" vType="vecType" speedFactor="1.11" vaporized="">
        <emissions CO_abs="62804.378493" CO2_abs="2693757.287117" HC_abs="352.021315" PMx_abs="59.543500" NOx_abs="1069.759652" fuel_abs="859193.163371" electricity_abs="0"/>
    </tripinfo>
    <tripinfo id="75" depart="18120.00" departLane="-254297762#2_0" departPos="5.10" departSpeed="0.00" departDelay="0.00" arrival="20760.00" arrivalLane="-254297762#2_0" arrivalPos="291.17" arrivalSpeed="10.98" duration="2640.00" routeLength="5758.38" waitingTime="197.00" waitingCount="12" stopTime="1815.00" timeLoss="301.86" rerouteNo="3" devices="vehroute_75 tripinfo_75 emissions_75" vType="vecType" speedFactor="0.98" vaporized="">
        <emissions CO_abs="57801.372798" CO2_abs="2045921.377665" HC_abs="310.537656" PMx_abs="36.631982" NOx_abs="842.754712" fuel_abs="652570.888878" electricity_abs="0"/>
    </tripinfo>
    <tripinfo id="68" depart="18060.00" departLane="27167762_0" departPos="5.10" departSpeed="0.00" departDelay="0.00" arrival="20782.00" arrivalLane="27167762_0" arrivalPos="139.02" arrivalSpeed="21.88" duration="2722.00" routeLength="5366.29" waitingTime="141.00" waitingCount="5" stopTime="2149.00" timeLoss="221.53" rerouteNo="2" devices="vehroute_68 tripinfo_68 emissions_68" vType="vecType" speedFactor="1.04" vaporized="">
        <emissions CO_abs="46561.300202" CO2_abs="1890700.084045" HC_abs="256.435720" PMx_abs="36.917345" NOx_abs="777.898150" fuel_abs="603054.885218" electricity_abs="0"/>
    </tripinfo>
    <tripinfo id="61" depart="18060.00" departLane="8916767#0_0" departPos="5.10" departSpeed="0.00" departDelay="0.00" arrival="20800.00" arrivalLane="8916767#0_0" arrivalPos="129.66" arrivalSpeed="12.37" duration="2740.00" routeLength="9681.91" waitingTime="574.00" waitingCount="19" stopTime="1221.00" timeLoss="744.68" rerouteNo="2" devices="vehroute_61 tripinfo_61 emissions_61" vType="vecType" speedFactor="1.12" vaporized="">
        <emissions CO_abs="130959.450605" CO2_abs="3998593.363504" HC_abs="687.747708" PMx_abs="76.038617" NOx_abs="1666.030223" fuel_abs="1275405.799173" electricity_abs="0"/>
    </tripinfo>
    <tripinfo id="144" depart="18480.00" departLane="142972028#1_0" departPos="5.10" departSpeed="0.00" departDelay="0.00" arrival="20823.00" arrivalLane="142972028#1_0" arrivalPos="161.20" arrivalSpeed="12.55" duration="2343.00" routeLength="7852.42" waitingTime="347.00" waitingCount="12" stopTime="1342.00" timeLoss="467.57" rerouteNo="2" devices="vehroute_144 tripinfo_144 emissions_144" vType="vecType" speedFactor="1.21" vaporized="">
        <emissions CO_abs="86179.381939" CO2_abs="3019196.304877" HC_abs="460.833007" PMx_abs="58.301687" NOx_abs="1248.046823" fuel_abs="963005.524924" electricity_abs="0"/>
    </tripinfo>
    <tripinfo id="191" depart="18663.00" departLane="8915254_0" departPos="5.10" departSpeed="0.00" departDelay="3.00" arrival="20855.00" arrivalLane="8915254_0" arrivalPos="317.12" arrivalSpeed="19.74" duration="2192.00" routeLength="6701.39" waitingTime="226.00" waitingCount="8" stopTime="1326.00" timeLoss="316.18" rerouteNo="2" devices="vehroute_191 tripinfo_191 emissions_191" vType="vecType" speedFactor="0.94" vaporized="">
        <emissions CO_abs="63256.695511" CO2_abs="2342037.121651" HC_abs="341.802445" PMx_abs="41.751714" NOx_abs="952.563501" fuel_abs="747019.529160" electricity_abs="0"/>
    </tripinfo>
    <tripinfo id="185" depart="18600.00" departLane="90077241_0" departPos="5.10" departSpeed="0.00" departDelay="0.00" arrival="20873.00" arrivalLane="90077241_0" arrivalPos="3225.35" arrivalSpeed="34.04" duration="2273.00" routeLength="13070.62" waitingTime="231.00" waitingCount="8" stopTime="1430.00" timeLoss="323.48" rerouteNo="2" devices="vehroute_185 tripinfo_185 emissions_185" vType="vecType" speedFactor="1.18" vaporized="">
        <emissions CO_abs="98940.394934" CO2_abs="3974967.036053" HC_abs="548.511208" PMx_abs="91.669767" NOx_abs="1591.567906" fuel_abs="1267844.706544" electricity_abs="0"/>
    </tripinfo>
    <tripinfo id="332" depart="20400.00" departLane="-242896157#0_0" departPos="5.10" departSpeed="0.00" departDelay="0.00" arrival="20893.00" arrivalLane="-242896157#0_1" arrivalPos="109.29" arrivalSpeed="9.92" duration="493.00" routeLength="8698.52" waitingTime="60.00" waitingCount="3" stopTime="0.00" timeLoss="97.64" rerouteNo="1" devices="vehroute_332 tripinfo_332 emissions_332" vType="vecType" speedFactor="0.96" vaporized="">
        <emissions CO_abs="33273.149476" CO2_abs="1987726.108494" HC_abs="199.085887" PMx_abs="39.613308" NOx_abs="756.985804" fuel_abs="633996.195718" electricity_abs="0"/>
    </tripinfo>
    <tripinfo id="250" depart="19443.00" departLane="-24335483#9_0" departPos="5.10" departSpeed="0.00" departDelay="3.00" arrival="20902.00" arrivalLane="-24335483#9_0" arrivalPos="292.66" arrivalSpeed="10.28" duration="1459.00" routeLength="14375.42" waitingTime="405.00" waitingCount="15" stopTime="0.00" timeLoss="547.14" rerouteNo="4" devices="vehroute_250 tripinfo_250 emissions_250" vType="vecType" speedFactor="0.97" vaporized="">
        <emissions CO_abs="115443.236390" CO2_abs="4403674.244991" HC_abs="629.332950" PMx_abs="85.935562" NOx_abs="1767.771213" fuel_abs="1404597.160212" electricity_abs="0"/>
    </tripinfo>
    <tripinfo id="20" depart="18000.00" departLane="123867455_0" departPos="5.10" departSpeed="0.00" departDelay="0.00" arrival="20906.00" arrivalLane="123867455_0" arrivalPos="904.85" arrivalSpeed="28.73" duration="2906.00" routeLength="6690.85" waitingTime="234.00" waitingCount="10" stopTime="2144.00" timeLoss="326.39" rerouteNo="2" devices="vehroute_20 tripinfo_20 emissions_20" vType="vecType" speedFactor="1.02" vaporized="">
        <emissions CO_abs="67053.792501" CO2_abs="2431658.085672" HC_abs="363.066811" PMx_abs="48.673486" NOx_abs="1000.832915" fuel_abs="775601.940536" electricity_abs="0"/>
    </tripinfo>
    <tripinfo id="138" depart="18420.00" departLane="-27570786#2_0" departPos="5.10" departSpeed="0.00" departDelay="0.00" arrival="20913.00" arrivalLane="-27570786#2_0" arrivalPos="88.50" arrivalSpeed="9.96" duration="2493.00" routeLength="7542.50" waitingTime="376.00" waitingCount="16" stopTime="1286.00" timeLoss="506.27" rerouteNo="2" devices="vehroute_138 tripinfo_138 emissions_138" vType="vecType" speedFactor="0.96" vaporized="">
        <emissions CO_abs="93793.885437" CO2_abs="2906633.554586" HC_abs="494.154033" PMx_abs="52.852821" NOx_abs="1202.619610" fuel_abs="927111.714811" electricity_abs="0"/>
    </tripinfo>
    <tripinfo id="190" depart="18660.00" departLane="-206662304#13_0" departPos="5.10" departSpeed="0.00" departDelay="0.00" arrival="20960.00" arrivalLane="-206662304#13_0" arrivalPos="290.52" arrivalSpeed="8.39" duration="2300.00" routeLength="7676.31" waitingTime="385.00" waitingCount="14" stopTime="951.00" timeLoss="516.23" rerouteNo="3" devices="vehroute_190 tripinfo_190 emissions_190" vType="vecType" speedFactor="0.82" vaporized="">
        <emissions CO_abs="102023.491252" CO2_abs="2988985.506248" HC_abs="533.220189" PMx_abs="54.061565" NOx_abs="1240.815867" fuel_abs="953382.411815" electricity_abs="0"/>
    </tripinfo>
    <tripinfo id="230" depart="19140.00" departLane="133733582#2_0" departPos="5.10" departSpeed="0.00" departDelay="0.00" arrival="21014.00" arrivalLane="133733582#2_0" arrivalPos="149.99" arrivalSpeed="11.51" duration="1874.00" routeLength="6535.79" waitingTime="327.00" waitingCount="13" stopTime="927.00" timeLoss="441.64" rerouteNo="2" devices="vehroute_230 tripinfo_230 emissions_230" vType="vecType" speedFactor="1.05" vaporized="">
        <emissions CO_abs="80777.110490" CO2_abs="2616526.528969" HC_abs="428.574881" PMx_abs="50.260405" NOx_abs="1087.997421" fuel_abs="834573.487267" electricity_abs="0"/>
    </tripinfo>
    <tripinfo id="132" depart="18300.00" departLane="142972028#1_0" departPos="5.10" departSpeed="0.00" departDelay="0.00" arrival="21030.00" arrivalLane="142972028#1_0" arrivalPos="161.20" arrivalSpeed="7.90" duration="2730.00" routeLength="5492.34" waitingTime="144.00" waitingCount="5" stopTime="1918.00" timeLoss="223.21" rerouteNo="3" devices="vehroute_132 tripinfo_132 emissions_132" vType="vecType" speedFactor="0.73" vaporized="">
        <emissions CO_abs="51027.428044" CO2_abs="1785524.860204" HC_abs="272.540463" PMx_abs="29.898568" NOx_abs="721.772982" fuel_abs="569516.830086" electricity_abs="0"/>
    </tripinfo>
    <tripinfo id="18" depart="18000.00" departLane="8916792_0" departPos="5.10" departSpeed="0.00" departDelay="0.00" arrival="21069.00" arrivalLane="8916792_0" arrivalPos="615.11" arrivalSpeed="10.18" duration="3069.00" routeLength="8535.65" waitingTime="489.00" waitingCount="17" stopTime="1623.00" timeLoss="629.59" rerouteNo="4" devices="vehroute_18 tripinfo_18 emissions_18" vType="vecType" speedFactor="0.94" vaporized="">
        <emissions CO_abs="115868.989400" CO2_abs="3380647.618286" HC_abs="605.469106" PMx_abs="61.849626" NOx_abs="1401.706313" fuel_abs="1078309.009063" electricity_abs="0"/>
    </tripinfo>
    <tripinfo id="66" depart="18060.00" departLane="-206662304#13_0" departPos="5.10" departSpeed="0.00" departDelay="0.00" arrival="21118.00" arrivalLane="-206662304#13_0" arrivalPos="290.52" arrivalSpeed="9.58" duration="3058.00" routeLength="6773.96" waitingTime="264.00" waitingCount="15" stopTime="2000.00" timeLoss="389.14" rerouteNo="2" devices="vehroute_66 tripinfo_66 emissions_66" vType="vecType" speedFactor="0.91" vaporized="">
        <emissions CO_abs="76265.477957" CO2_abs="2510143.111832" HC_abs="405.025461" PMx_abs="44.205096" NOx_abs="1031.783574" fuel_abs="800643.922037" electricity_abs="0"/>
    </tripinfo>
    <tripinfo id="79" depart="18120.00" departLane="-24310636#2_0" departPos="5.10" departSpeed="0.00" departDelay="0.00" arrival="21134.00" arrivalLane="-24310636#2_1" arrivalPos="108.36" arrivalSpeed="11.61" duration="3014.00" routeLength="6581.41" waitingTime="192.00" waitingCount="9" stopTime="2231.00" timeLoss="292.16" rerouteNo="2" devices="vehroute_79 tripinfo_79 emissions_79" vType="vecType" speedFactor="1.09" vaporized="">
        <emissions CO_abs="56225.536014" CO2_abs="2222468.282348" HC_abs="307.383778" PMx_abs="40.871366" NOx_abs="909.142963" fuel_abs="708878.186333" electricity_abs="0"/>
    </tripinfo>
    <tripinfo id="150" depart="18480.00" departLane="144489137#0_0" departPos="5.10" departSpeed="0.00" departDelay="0.00" arrival="21309.00" arrivalLane="144489137#0_0" arrivalPos="135.49" arrivalSpeed="11.31" duration="2829.00" routeLength="6769.51" waitingTime="498.00" waitingCount="18" stopTime="1603.00" timeLoss="634.56" rerouteNo="4" devices="vehroute_150 tripinfo_150 emissions_150" vType="vecType" speedFactor="1.02" vaporized="">