<?xml version="1.0" encoding="UTF-8"?>

<!-- generated on 2022-12-24 10:52:50 by Eclipse SUMO sumo Version 1.14.1
<configuration xmlns:xsi="http://www.w3.org/2001/XMLSchema-instance" xsi:noNamespaceSchemaLocation="http://sumo.dlr.de/xsd/sumoConfiguration.xsd">

    <input>
        <net-file value="./strategia1_config/../san_francisco.net.xml"/>
        <route-files value="./strategia1_config/../san_francisco.rou.xml"/>
        <additional-files value="./strategia1_config/../san_francisco.poly.xml,./strategia1_config/../parking_capacity_50%25/off_parking_50%25.add.xml,./strategia1_config/../parking_capacity_50%25/on_parking_50%25.add.xml"/>
    </input>

    <output>
        <emission-output value="./strategia1_config/../output/strategia1/50%25/emissions.xml"/>
        <tripinfo-output value="./strategia1_config/../output/strategia1/50%25/tripinfo.xml"/>
        <vehroute-output value="./strategia1_config/../output/strategia1/50%25/vehroute.xml"/>
        <stop-output value="./strategia1_config/../output/strategia1/50%25/stops.xml"/>
        <collision-output value="./strategia1_config/../output/strategia1/50%25/collision.xml"/>
        <statistic-output value="./strategia1_config/../output/strategia1/50%25/statistic.xml"/>
    </output>

    <time>
        <step-length value="1"/>
    </time>

    <processing>
        <ignore-route-errors value="false"/>
    </processing>

    <report>
        <verbose value="true"/>
        <xml-validation value="never"/>
    </report>

    <traci_server>
        <remote-port value="49342"/>
    </traci_server>

    <gui_only>
        <gui-settings-file value="./strategia1_config/../gui-settings.cfg"/>
        <start value="true"/>
    </gui_only>

</configuration>
-->

<routes xmlns:xsi="http://www.w3.org/2001/XMLSchema-instance" xsi:noNamespaceSchemaLocation="http://sumo.dlr.de/xsd/routes_file.xsd">
    <vehicle id="0" type="vecType" depart="18000.00" arrival="18611.00">
        <routeDistribution>
            <route replacedOnEdge="255330036#10" replacedOnIndex="11" reason="traci:setRoute" replacedAtTime="18280.00" probability="0" edges="123867455 8920391#0 255330048 255351721#0 -27656675 26943623 -111550911#3 -111550911#2 -111550911#1 -111550911#0 -88559680#5 255330036#10 255330036#11"/>
            <route replacedOnEdge="255330036#11" replacedOnIndex="12" reason="traci:setRoute" replacedAtTime="18284.00" probability="0" edges="123867455 8920391#0 255330048 255351721#0 -27656675 26943623 -111550911#3 -111550911#2 -111550911#1 -111550911#0 -88559680#5 255330036#10 255330036#11 255330036#12"/>
            <route replacedOnEdge="255330036#12" replacedOnIndex="13" reason="traci:setRoute" replacedAtTime="18301.00" probability="0" edges="123867455 8920391#0 255330048 255351721#0 -27656675 26943623 -111550911#3 -111550911#2 -111550911#1 -111550911#0 -88559680#5 255330036#10 255330036#11 255330036#12 -255330036#12"/>
            <route replacedOnEdge="-255330036#12" replacedOnIndex="14" reason="traci:changeTarget" replacedAtTime="18312.00" probability="0" edges="123867455 8920391#0 255330048 255351721#0 -27656675 26943623 -111550911#3 -111550911#2 -111550911#1 -111550911#0 -88559680#5 255330036#10 255330036#11 255330036#12 -255330036#12 -255330036#11"/>
            <route edges="123867455 8920391#0 255330048 255351721#0 -27656675 26943623 -111550911#3 -111550911#2 -111550911#1 -111550911#0 -88559680#5 255330036#10 255330036#11 255330036#12 -255330036#12 -255330036#11 -255330036#10 88559680#5 224384059#0 8920394#1 27145438#0 255330047#0 30454437 gneE21 123867455"/>
        </routeDistribution>
        <stop parkingArea="parkingArea_-255330036#12_0_93" duration="100.00" parking="1"/>
    </vehicle>

    <vehicle id="2" type="vecType" depart="18006.00" arrival="18787.00">
        <routeDistribution>
            <route replacedOnEdge="255330036#10" replacedOnIndex="11" reason="traci:setRoute" replacedAtTime="18373.00" probability="0" edges="123867455 8920391#0 255330048 255351721#0 -27656675 26943623 -111550911#3 -111550911#2 -111550911#1 -111550911#0 -88559680#5 255330036#10 255330036#11"/>
            <route replacedOnEdge="255330036#11" replacedOnIndex="12" reason="traci:setRoute" replacedAtTime="18377.00" probability="0" edges="123867455 8920391#0 255330048 255351721#0 -27656675 26943623 -111550911#3 -111550911#2 -111550911#1 -111550911#0 -88559680#5 255330036#10 255330036#11 8921907"/>
            <route replacedOnEdge="8921907" replacedOnIndex="13" reason="traci:setRoute" replacedAtTime="18396.00" probability="0" edges="123867455 8920391#0 255330048 255351721#0 -27656675 26943623 -111550911#3 -111550911#2 -111550911#1 -111550911#0 -88559680#5 255330036#10 255330036#11 8921907 -111550910#1"/>
            <route replacedOnEdge="-111550910#1" replacedOnIndex="14" reason="traci:changeTarget" replacedAtTime="18405.00" probability="0" edges="123867455 8920391#0 255330048 255351721#0 -27656675 26943623 -111550911#3 -111550911#2 -111550911#1 -111550911#0 -88559680#5 255330036#10 255330036#11 8921907 -111550910#1 8920394#0"/>
            <route edges="123867455 8920391#0 255330048 255351721#0 -27656675 26943623 -111550911#3 -111550911#2 -111550911#1 -111550911#0 -88559680#5 255330036#10 255330036#11 8921907 -111550910#1 8920394#0 8920394#1 27145438#0 255330047#0 30454437 gneE21 123867455"/>
        </routeDistribution>
        <stop parkingArea="parkingArea_-111550910#1_0_480" duration="100.00" parking="1"/>
    </vehicle>

    <vehicle id="4" type="vecType" depart="18012.00" arrival="18876.00">
        <routeDistribution>
            <route replacedOnEdge="255330036#10" replacedOnIndex="11" reason="traci:setRoute" replacedAtTime="18462.00" probability="0" edges="123867455 8920391#0 255330048 255351721#0 -27656675 26943623 -111550911#3 -111550911#2 -111550911#1 -111550911#0 -88559680#5 255330036#10 255330036#11"/>
            <route replacedOnEdge="255330036#11" replacedOnIndex="12" reason="traci:setRoute" replacedAtTime="18467.00" probability="0" edges="123867455 8920391#0 255330048 255351721#0 -27656675 26943623 -111550911#3 -111550911#2 -111550911#1 -111550911#0 -88559680#5 255330036#10 255330036#11 -255330036#11"/>
            <route replacedOnEdge="-255330036#11" replacedOnIndex="13" reason="traci:changeTarget" replacedAtTime="18475.00" probability="0" edges="123867455 8920391#0 255330048 255351721#0 -27656675 26943623 -111550911#3 -111550911#2 -111550911#1 -111550911#0 -88559680#5 255330036#10 255330036#11 -255330036#11 -255330036#10"/>
            <route edges="123867455 8920391#0 255330048 255351721#0 -27656675 26943623 -111550911#3 -111550911#2 -111550911#1 -111550911#0 -88559680#5 255330036#10 255330036#11 -255330036#11 -255330036#10 88559680#5 224384059#0 8920394#1 27145438#0 255330047#0 30454437 gneE21 123867455"/>
        </routeDistribution>
        <stop parkingArea="parkingArea_-255330036#11_0_91" duration="100.00" parking="1"/>
    </vehicle>

    <vehicle id="3" type="vecType" depart="18009.00" arrival="18883.00">
        <routeDistribution>
            <route replacedOnEdge="255330036#10" replacedOnIndex="11" reason="traci:setRoute" replacedAtTime="18458.00" probability="0" edges="123867455 8920391#0 255330048 255351721#0 -27656675 26943623 -111550911#3 -111550911#2 -111550911#1 -111550911#0 -88559680#5 255330036#10 255330036#11"/>
            <route replacedOnEdge="255330036#11" replacedOnIndex="12" reason="traci:setRoute" replacedAtTime="18464.00" probability="0" edges="123867455 8920391#0 255330048 255351721#0 -27656675 26943623 -111550911#3 -111550911#2 -111550911#1 -111550911#0 -88559680#5 255330036#10 255330036#11 8921907"/>
            <route replacedOnEdge="8921907" replacedOnIndex="13" reason="traci:setRoute" replacedAtTime="18482.00" probability="0" edges="123867455 8920391#0 255330048 255351721#0 -27656675 26943623 -111550911#3 -111550911#2 -111550911#1 -111550911#0 -88559680#5 255330036#10 255330036#11 8921907 -111550910#1"/>
            <route replacedOnEdge="-111550910#1" replacedOnIndex="14" reason="traci:changeTarget" replacedAtTime="18489.00" probability="0" edges="123867455 8920391#0 255330048 255351721#0 -27656675 26943623 -111550911#3 -111550911#2 -111550911#1 -111550911#0 -88559680#5 255330036#10 255330036#11 8921907 -111550910#1 111550910#1"/>
            <route edges="123867455 8920391#0 255330048 255351721#0 -27656675 26943623 -111550911#3 -111550911#2 -111550911#1 -111550911#0 -88559680#5 255330036#10 255330036#11 8921907 -111550910#1 8920394#0 8920394#1 27145438#0 255330047#0 30454437 gneE21 123867455"/>
        </routeDistribution>
        <stop parkingArea="parkingArea_-111550910#1_0_480" duration="100.00" parking="1"/>
    </vehicle>

    <vehicle id="1" type="vecType" depart="18003.00" arrival="18888.00">
        <routeDistribution>
            <route replacedOnEdge="255330036#10" replacedOnIndex="11" reason="traci:setRoute" replacedAtTime="18367.00" probability="0" edges="123867455 8920391#0 255330048 255351721#0 -27656675 26943623 -111550911#3 -111550911#2 -111550911#1 -111550911#0 -88559680#5 255330036#10 255330036#11"/>
            <route replacedOnEdge="255330036#11" replacedOnIndex="12" reason="traci:setRoute" replacedAtTime="18372.00" probability="0" edges="123867455 8920391#0 255330048 255351721#0 -27656675 26943623 -111550911#3 -111550911#2 -111550911#1 -111550911#0 -88559680#5 255330036#10 255330036#11 255330036#12"/>
            <route replacedOnEdge="255330036#12" replacedOnIndex="13" reason="traci:setRoute" replacedAtTime="18390.00" probability="0" edges="123867455 8920391#0 255330048 255351721#0 -27656675 26943623 -111550911#3 -111550911#2 -111550911#1 -111550911#0 -88559680#5 255330036#10 255330036#11 255330036#12 -174822357#0"/>
            <route replacedOnEdge="-174822357#0" replacedOnIndex="14" reason="traci:setRoute" replacedAtTime="18399.00" probability="0" edges="123867455 8920391#0 255330048 255351721#0 -27656675 26943623 -111550911#3 -111550911#2 -111550911#1 -111550911#0 -88559680#5 255330036#10 255330036#11 255330036#12 -174822357#0 174822357#0"/>
            <route replacedOnEdge="174822357#0" replacedOnIndex="15" reason="traci:setRoute" replacedAtTime="18408.00" probability="0" edges="123867455 8920391#0 255330048 255351721#0 -27656675 26943623 -111550911#3 -111550911#2 -111550911#1 -111550911#0 -88559680#5 255330036#10 255330036#11 255330036#12 -174822357#0 174822357#0 174822357#1"/>
            <route replacedOnEdge="-174822357#1" replacedOnIndex="17" reason="traci:setRoute" replacedAtTime="18422.00" probability="0" edges="123867455 8920391#0 255330048 255351721#0 -27656675 26943623 -111550911#3 -111550911#2 -111550911#1 -111550911#0 -88559680#5 255330036#10 255330036#11 255330036#12 -174822357#0 174822357#0 174822357#1 -174822357#1"/>
            <route replacedOnEdge="-174822357#1" replacedOnIndex="17" reason="traci:changeTarget" replacedAtTime="18429.00" probability="0" edges="123867455 8920391#0 255330048 255351721#0 -27656675 26943623 -111550911#3 -111550911#2 -111550911#1 -111550911#0 -88559680#5 255330036#10 255330036#11 255330036#12 -174822357#0 174822357#0 174822357#1 -174822357#1 255330036#13"/>
            <route edges="123867455 8920391#0 255330048 255351721#0 -27656675 26943623 -111550911#3 -111550911#2 -111550911#1 -111550911#0 -88559680#5 255330036#10 255330036#11 255330036#12 -174822357#0 174822357#0 174822357#1 -174822357#1 -255330036#12 -255330036#11 -255330036#10 88559680#5 224384059#0 8920394#1 27145438#0 255330047#0 30454437 gneE21 123867455"/>
        </routeDistribution>
        <stop parkingArea="parkingArea_-174822357#1_0_95" duration="100.00" parking="1"/>
    </vehicle>

    <vehicle id="6" type="vecType" depart="18018.00" arrival="18888.00">
        <routeDistribution>
            <route replacedOnEdge="255330036#10" replacedOnIndex="11" reason="traci:setRoute" replacedAtTime="18550.00" probability="0" edges="123867455 8920391#0 255330048 255351721#0 -27656675 26943623 -111550911#3 -111550911#2 -111550911#1 -111550911#0 -88559680#5 255330036#10 255330036#11"/>
            <route replacedOnEdge="255330036#11" replacedOnIndex="12" reason="traci:setRoute" replacedAtTime="18555.00" probability="0" edges="123867455 8920391#0 255330048 255351721#0 -27656675 26943623 -111550911#3 -111550911#2 -111550911#1 -111550911#0 -88559680#5 255330036#10 255330036#11 255330036#12"/>
            <route replacedOnEdge="255330036#12" replacedOnIndex="13" reason="traci:setRoute" replacedAtTime="18572.00" probability="0" edges="123867455 8920391#0 255330048 255351721#0 -27656675 26943623 -111550911#3 -111550911#2 -111550911#1 -111550911#0 -88559680#5 255330036#10 255330036#11 255330036#12 -255330036#12"/>
            <route replacedOnEdge="-255330036#12" replacedOnIndex="14" reason="traci:changeTarget" replacedAtTime="18584.00" probability="0" edges="123867455 8920391#0 255330048 255351721#0 -27656675 26943623 -111550911#3 -111550911#2 -111550911#1 -111550911#0 -88559680#5 255330036#10 255330036#11 255330036#12 -255330036#12 8921907"/>
            <route edges="123867455 8920391#0 255330048 255351721#0 -27656675 26943623 -111550911#3 -111550911#2 -111550911#1 -111550911#0 -88559680#5 255330036#10 255330036#11 255330036#12 -255330036#12 -255330036#11 -255330036#10 88559680#5 224384059#0 8920394#1 27145438#0 255330047#0 30454437 gneE21 123867455"/>
        </routeDistribution>
        <stop parkingArea="parkingArea_-255330036#12_0_93" duration="100.00" parking="1"/>
    </vehicle>

    <vehicle id="17" type="vecType" depart="18051.00" arrival="18891.00">
        <routeDistribution>
            <route replacedOnEdge="255330036#10" replacedOnIndex="11" reason="traci:setRoute" replacedAtTime="18456.00" probability="0" edges="123867455 8920391#0 255330048 255351721#0 -27656675 26943623 -111550911#3 -111550911#2 -111550911#1 -111550911#0 -88559680#5 255330036#10 255330036#11"/>
            <route replacedOnEdge="255330036#11" replacedOnIndex="12" reason="traci:setRoute" replacedAtTime="18462.00" probability="0" edges="123867455 8920391#0 255330048 255351721#0 -27656675 26943623 -111550911#3 -111550911#2 -111550911#1 -111550911#0 -88559680#5 255330036#10 255330036#11 -255330036#11"/>
            <route replacedOnEdge="-255330036#11" replacedOnIndex="13" reason="traci:changeTarget" replacedAtTime="18470.00" probability="0" edges="123867455 8920391#0 255330048 255351721#0 -27656675 26943623 -111550911#3 -111550911#2 -111550911#1 -111550911#0 -88559680#5 255330036#10 255330036#11 -255330036#11 -255330036#10"/>
            <route edges="123867455 8920391#0 255330048 255351721#0 -27656675 26943623 -111550911#3 -111550911#2 -111550911#1 -111550911#0 -88559680#5 255330036#10 255330036#11 -255330036#11 -255330036#10 88559680#5 224384059#0 8920394#1 27145438#0 255330047#0 30454437 gneE21 123867455"/>
        </routeDistribution>
        <stop parkingArea="parkingArea_-255330036#11_0_91" duration="100.00" parking="1"/>
    </vehicle>

    <vehicle id="7" type="vecType" depart="18021.00" arrival="19073.00">
        <routeDistribution>
            <route replacedOnEdge="255330036#10" replacedOnIndex="11" reason="traci:setRoute" replacedAtTime="18637.00" probability="0" edges="123867455 8920391#0 255330048 255351721#0 -27656675 26943623 -111550911#3 -111550911#2 -111550911#1 -111550911#0 -88559680#5 255330036#10 255330036#11"/>
            <route replacedOnEdge="255330036#11" replacedOnIndex="12" reason="traci:setRoute" replacedAtTime="18642.00" probability="0" edges="123867455 8920391#0 255330048 255351721#0 -27656675 26943623 -111550911#3 -111550911#2 -111550911#1 -111550911#0 -88559680#5 255330036#10 255330036#11 8921907"/>
            <route replacedOnEdge="8921907" replacedOnIndex="13" reason="traci:setRoute" replacedAtTime="18663.00" probability="0" edges="123867455 8920391#0 255330048 255351721#0 -27656675 26943623 -111550911#3 -111550911#2 -111550911#1 -111550911#0 -88559680#5 255330036#10 255330036#11 8921907 -111550910#1"/>
            <route replacedOnEdge="-111550910#1" replacedOnIndex="14" reason="traci:changeTarget" replacedAtTime="18672.00" probability="0" edges="123867455 8920391#0 255330048 255351721#0 -27656675 26943623 -111550911#3 -111550911#2 -111550911#1 -111550911#0 -88559680#5 255330036#10 255330036#11 8921907 -111550910#1 8920394#0"/>
            <route edges="123867455 8920391#0 255330048 255351721#0 -27656675 26943623 -111550911#3 -111550911#2 -111550911#1 -111550911#0 -88559680#5 255330036#10 255330036#11 8921907 -111550910#1 8920394#0 8920394#1 27145438#0 255330047#0 30454437 gneE21 123867455"/>
        </routeDistribution>
        <stop parkingArea="parkingArea_-111550910#1_0_480" duration="100.00" parking="1"/>
    </vehicle>

    <vehicle id="5" type="vecType" depart="18015.00" arrival="19078.00">
        <routeDistribution>
            <route replacedOnEdge="255330036#10" replacedOnIndex="11" reason="traci:setRoute" replacedAtTime="18547.00" probability="0" edges="123867455 8920391#0 255330048 255351721#0 -27656675 26943623 -111550911#3 -111550911#2 -111550911#1 -111550911#0 -88559680#5 255330036#10 255330036#11"/>
            <route replacedOnEdge="255330036#11" replacedOnIndex="12" reason="traci:setRoute" replacedAtTime="18552.00" probability="0" edges="123867455 8920391#0 255330048 255351721#0 -27656675 26943623 -111550911#3 -111550911#2 -111550911#1 -111550911#0 -88559680#5 255330036#10 255330036#11 -255330036#11"/>
            <route replacedOnEdge="-255330036#11" replacedOnIndex="13" reason="traci:setRoute" replacedAtTime="18558.00" probability="0" edges="123867455 8920391#0 255330048 255351721#0 -27656675 26943623 -111550911#3 -111550911#2 -111550911#1 -111550911#0 -88559680#5 255330036#10 255330036#11 -255330036#11 -255330036#10"/>
            <route replacedOnEdge="-255330036#10" replacedOnIndex="14" reason="traci:setRoute" replacedAtTime="18565.00" probability="0" edges="123867455 8920391#0 255330048 255351721#0 -27656675 26943623 -111550911#3 -111550911#2 -111550911#1 -111550911#0 -88559680#5 255330036#10 255330036#11 -255330036#11 -255330036#10 -88559680#4"/>
            <route replacedOnEdge="-88559680#4" replacedOnIndex="15" reason="traci:changeTarget" replacedAtTime="18593.00" probability="0" edges="123867455 8920391#0 255330048 255351721#0 -27656675 26943623 -111550911#3 -111550911#2 -111550911#1 -111550911#0 -88559680#5 255330036#10 255330036#11 -255330036#11 -255330036#10 -88559680#4 -88559680#2"/>
            <route edges="123867455 8920391#0 255330048 255351721#0 -27656675 26943623 -111550911#3 -111550911#2 -111550911#1 -111550911#0 -88559680#5 255330036#10 255330036#11 -255330036#11 -255330036#10 -88559680#4 88559680#3 88559680#5 224384059#0 8920394#1 27145438#0 255330047#0 30454437 gneE21 123867455"/>
        </routeDistribution>
        <stop parkingArea="parkingArea_-88559680#4_0_486" duration="100.00" parking="1"/>
    </vehicle>

    <vehicle id="10" type="vecType" depart="18030.00" arrival="19145.00">
        <routeDistribution>
            <route replacedOnEdge="255330036#10" replacedOnIndex="11" reason="traci:setRoute" replacedAtTime="18731.00" probability="0" edges="123867455 8920391#0 255330048 255351721#0 -27656675 26943623 -111550911#3 -111550911#2 -111550911#1 -111550911#0 -88559680#5 255330036#10 255330036#11"/>
            <route replacedOnEdge="255330036#11" replacedOnIndex="12" reason="traci:setRoute" replacedAtTime="18736.00" probability="0" edges="123867455 8920391#0 255330048 255351721#0 -27656675 26943623 -111550911#3 -111550911#2 -111550911#1 -111550911#0 -88559680#5 255330036#10 255330036#11 8921907"/>
            <route replacedOnEdge="8921907" replacedOnIndex="13" reason="traci:setRoute" replacedAtTime="18759.00" probability="0" edges="123867455 8920391#0 255330048 255351721#0 -27656675 26943623 -111550911#3 -111550911#2 -111550911#1 -111550911#0 -88559680#5 255330036#10 255330036#11 8921907 -111550910#1"/>
            <route replacedOnEdge="-111550910#1" replacedOnIndex="14" reason="traci:changeTarget" replacedAtTime="18769.00" probability="0" edges="123867455 8920391#0 255330048 255351721#0 -27656675 26943623 -111550911#3 -111550911#2 -111550911#1 -111550911#0 -88559680#5 255330036#10 255330036#11 8921907 -111550910#1 111550910#1"/>
            <route edges="123867455 8920391#0 255330048 255351721#0 -27656675 26943623 -111550911#3 -111550911#2 -111550911#1 -111550911#0 -88559680#5 255330036#10 255330036#11 8921907 -111550910#1 8920394#0 8920394#1 27145438#0 255330047#0 30454437 gneE21 123867455"/>
        </routeDistribution>
        <stop parkingArea="parkingArea_-111550910#1_0_480" duration="100.00" parking="1"/>
    </vehicle>

    <vehicle id="13" type="vecType" depart="18039.00" arrival="19149.00">
        <routeDistribution>
            <route replacedOnEdge="255330036#10" replacedOnIndex="11" reason="traci:setRoute" replacedAtTime="18816.00" probability="0" edges="123867455 8920391#0 255330048 255351721#0 -27656675 26943623 -111550911#3 -111550911#2 -111550911#1 -111550911#0 -88559680#5 255330036#10 255330036#11"/>
            <route replacedOnEdge="255330036#11" replacedOnIndex="12" reason="traci:setRoute" replacedAtTime="18821.00" probability="0" edges="123867455 8920391#0 255330048 255351721#0 -27656675 26943623 -111550911#3 -111550911#2 -111550911#1 -111550911#0 -88559680#5 255330036#10 255330036#11 -255330036#11"/>
            <route replacedOnEdge="-255330036#11" replacedOnIndex="13" reason="traci:changeTarget" replacedAtTime="18828.00" probability="0" edges="123867455 8920391#0 255330048 255351721#0 -27656675 26943623 -111550911#3 -111550911#2 -111550911#1 -111550911#0 -88559680#5 255330036#10 255330036#11 -255330036#11 -255330036#10"/>
            <route edges="123867455 8920391#0 255330048 255351721#0 -27656675 26943623 -111550911#3 -111550911#2 -111550911#1 -111550911#0 -88559680#5 255330036#10 255330036#11 -255330036#11 -255330036#10 88559680#5 224384059#0 8920394#1 27145438#0 255330047#0 30454437 gneE21 123867455"/>
        </routeDistribution>
        <stop parkingArea="parkingArea_-255330036#11_0_91" duration="100.00" parking="1"/>
    </vehicle>

    <vehicle id="11" type="vecType" depart="18033.00" arrival="19151.00">
        <routeDistribution>
            <route replacedOnEdge="255330036#10" replacedOnIndex="11" reason="traci:setRoute" replacedAtTime="18734.00" probability="0" edges="123867455 8920391#0 255330048 255351721#0 -27656675 26943623 -111550911#3 -111550911#2 -111550911#1 -111550911#0 -88559680#5 255330036#10 255330036#11"/>
            <route replacedOnEdge="255330036#11" replacedOnIndex="12" reason="traci:setRoute" replacedAtTime="18738.00" probability="0" edges="123867455 8920391#0 255330048 255351721#0 -27656675 26943623 -111550911#3 -111550911#2 -111550911#1 -111550911#0 -88559680#5 255330036#10 255330036#11 8921907"/>
            <route replacedOnEdge="-111550910#1" replacedOnIndex="14" reason="traci:setRoute" replacedAtTime="18762.00" probability="0" edges="123867455 8920391#0 255330048 255351721#0 -27656675 26943623 -111550911#3 -111550911#2 -111550911#1 -111550911#0 -88559680#5 255330036#10 255330036#11 8921907 -111550910#1"/>
            <route replacedOnEdge="-111550910#1" replacedOnIndex="14" reason="traci:changeTarget" replacedAtTime="18774.00" probability="0" edges="123867455 8920391#0 255330048 255351721#0 -27656675 26943623 -111550911#3 -111550911#2 -111550911#1 -111550911#0 -88559680#5 255330036#10 255330036#11 8921907 -111550910#1 -111550910#0"/>
            <route edges="123867455 8920391#0 255330048 255351721#0 -27656675 26943623 -111550911#3 -111550911#2 -111550911#1 -111550911#0 -88559680#5 255330036#10 255330036#11 8921907 -111550910#1 8920394#0 8920394#1 27145438#0 255330047#0 30454437 gneE21 123867455"/>
        </routeDistribution>
        <stop parkingArea="parkingArea_-111550910#1_0_480" duration="100.00" parking="1"/>
    </vehicle>

    <vehicle id="8" type="vecType" depart="18024.00" arrival="19157.00">
        <routeDistribution>
            <route replacedOnEdge="255330036#10" replacedOnIndex="11" reason="traci:setRoute" replacedAtTime="18727.00" probability="0" edges="123867455 8920391#0 255330048 255351721#0 -27656675 26943623 -111550911#3 -111550911#2 -111550911#1 -111550911#0 -88559680#5 255330036#10 255330036#11"/>
            <route replacedOnEdge="255330036#11" replacedOnIndex="12" reason="traci:setRoute" replacedAtTime="18732.00" probability="0" edges="123867455 8920391#0 255330048 255351721#0 -27656675 26943623 -111550911#3 -111550911#2 -111550911#1 -111550911#0 -88559680#5 255330036#10 255330036#11 -255330036#11"/>
            <route replacedOnEdge="-255330036#11" replacedOnIndex="13" reason="traci:changeTarget" replacedAtTime="18739.00" probability="0" edges="123867455 8920391#0 255330048 255351721#0 -27656675 26943623 -111550911#3 -111550911#2 -111550911#1 -111550911#0 -88559680#5 255330036#10 255330036#11 -255330036#11 -255330036#10"/>
            <route edges="123867455 8920391#0 255330048 255351721#0 -27656675 26943623 -111550911#3 -111550911#2 -111550911#1 -111550911#0 -88559680#5 255330036#10 255330036#11 -255330036#11 -255330036#10 88559680#5 224384059#0 8920394#1 27145438#0 255330047#0 30454437 gneE21 123867455"/>
        </routeDistribution>
        <stop parkingArea="parkingArea_-255330036#11_0_91" duration="100.00" parking="1"/>
    </vehicle>

    <vehicle id="9" type="vecType" depart="18027.00" arrival="19172.00">
        <routeDistribution>
            <route replacedOnEdge="255330036#10" replacedOnIndex="11" reason="traci:setRoute" replacedAtTime="18729.00" probability="0" edges="123867455 8920391#0 255330048 255351721#0 -27656675 26943623 -111550911#3 -111550911#2 -111550911#1 -111550911#0 -88559680#5 255330036#10 255330036#11"/>
            <route replacedOnEdge="255330036#11" replacedOnIndex="12" reason="traci:setRoute" replacedAtTime="18734.00" probability="0" edges="123867455 8920391#0 255330048 255351721#0 -27656675 26943623 -111550911#3 -111550911#2 -111550911#1 -111550911#0 -88559680#5 255330036#10 255330036#11 8921907"/>
            <route replacedOnEdge="8921907" replacedOnIndex="13" reason="traci:setRoute" replacedAtTime="18756.00" probability="0" edges="123867455 8920391#0 255330048 255351721#0 -27656675 26943623 -111550911#3 -111550911#2 -111550911#1 -111550911#0 -88559680#5 255330036#10 255330036#11 8921907 -111550910#1"/>
            <route replacedOnEdge="-111550910#1" replacedOnIndex="14" reason="traci:changeTarget" replacedAtTime="18764.00" probability="0" edges="123867455 8920391#0 255330048 255351721#0 -27656675 26943623 -111550911#3 -111550911#2 -111550911#1 -111550911#0 -88559680#5 255330036#10 255330036#11 8921907 -111550910#1 111550910#1"/>
            <route edges="123867455 8920391#0 255330048 255351721#0 -27656675 26943623 -111550911#3 -111550911#2 -111550911#1 -111550911#0 -88559680#5 255330036#10 255330036#11 8921907 -111550910#1 8920394#0 8920394#1 27145438#0 255330047#0 30454437 gneE21 123867455"/>
        </routeDistribution>
        <stop parkingArea="parkingArea_-111550910#1_0_480" duration="100.00" parking="1"/>
    </vehicle>

    <vehicle id="12" type="vecType" depart="18036.00" arrival="19236.00">
        <routeDistribution>
            <route replacedOnEdge="255330036#10" replacedOnIndex="11" reason="traci:setRoute" replacedAtTime="18821.00" probability="0" edges="123867455 8920391#0 255330048 255351721#0 -27656675 26943623 -111550911#3 -111550911#2 -111550911#1 -111550911#0 -88559680#5 255330036#10 255330036#11"/>
            <route replacedOnEdge="255330036#11" replacedOnIndex="12" reason="traci:setRoute" replacedAtTime="18825.00" probability="0" edges="123867455 8920391#0 255330048 255351721#0 -27656675 26943623 -111550911#3 -111550911#2 -111550911#1 -111550911#0 -88559680#5 255330036#10 255330036#11 8921907"/>
            <route replacedOnEdge="8921907" replacedOnIndex="13" reason="traci:setRoute" replacedAtTime="18844.00" probability="0" edges="123867455 8920391#0 255330048 255351721#0 -27656675 26943623 -111550911#3 -111550911#2 -111550911#1 -111550911#0 -88559680#5 255330036#10 255330036#11 8921907 -8921907"/>
            <route replacedOnEdge="-8921907" replacedOnIndex="14" reason="traci:changeTarget" replacedAtTime="18854.00" probability="0" edges="123867455 8920391#0 255330048 255351721#0 -27656675 26943623 -111550911#3 -111550911#2 -111550911#1 -111550911#0 -88559680#5 255330036#10 255330036#11 8921907 -8921907 255330036#12"/>
            <route edges="123867455 8920391#0 255330048 255351721#0 -27656675 26943623 -111550911#3 -111550911#2 -111550911#1 -111550911#0 -88559680#5 255330036#10 255330036#11 8921907 -8921907 -255330036#11 -255330036#10 88559680#5 224384059#0 8920394#1 27145438#0 255330047#0 30454437 gneE21 123867455"/>
        </routeDistribution>
        <stop parkingArea="parkingArea_-8921907_0_473" duration="100.00" parking="1"/>
    </vehicle>

    <vehicle id="19" type="vecType" depart="18057.00" arrival="19320.00">
        <routeDistribution>
            <route replacedOnEdge="255330036#10" replacedOnIndex="11" reason="traci:setRoute" replacedAtTime="18911.00" probability="0" edges="123867455 8920391#0 255330048 255351721#0 -27656675 26943623 -111550911#3 -111550911#2 -111550911#1 -111550911#0 -88559680#5 255330036#10 255330036#11"/>
            <route replacedOnEdge="255330036#11" replacedOnIndex="12" reason="traci:setRoute" replacedAtTime="18916.00" probability="0" edges="123867455 8920391#0 255330048 255351721#0 -27656675 26943623 -111550911#3 -111550911#2 -111550911#1 -111550911#0 -88559680#5 255330036#10 255330036#11 255330036#12"/>
            <route replacedOnEdge="255330036#12" replacedOnIndex="13" reason="traci:setRoute" replacedAtTime="18935.00" probability="0" edges="123867455 8920391#0 255330048 255351721#0 -27656675 26943623 -111550911#3 -111550911#2 -111550911#1 -111550911#0 -88559680#5 255330036#10 255330036#11 255330036#12 174822357#1"/>