<?xml version="1.0" encoding="UTF-8"?>

<!-- generated on 2023-01-10 23:39:29 by Eclipse SUMO sumo Version 1.14.1
<configuration xmlns:xsi="http://www.w3.org/2001/XMLSchema-instance" xsi:noNamespaceSchemaLocation="http://sumo.dlr.de/xsd/sumoConfiguration.xsd">

    <input>
        <net-file value="./strategia1_config/../san_francisco.net.xml"/>
        <route-files value="./strategia1_config/../san_francisco.rou.xml"/>
        <additional-files value="./strategia1_config/../san_francisco.poly.xml,./strategia1_config/../parking_capacity_50%25/off_parking_50%25.add.xml,./strategia1_config/../parking_capacity_50%25/on_parking_50%25.add.xml"/>
    </input>

    <output>
        <emission-output value="./strategia1_config/../output/strategia1/50%25/emissions.xml"/>
        <tripinfo-output value="./strategia1_config/../output/strategia1/50%25/tripinfo.xml"/>
        <vehroute-output value="./strategia1_config/../output/strategia1/50%25/vehroute.xml"/>
        <stop-output value="./strategia1_config/../output/strategia1/50%25/stops.xml"/>
        <collision-output value="./strategia1_config/../output/strategia1/50%25/collision.xml"/>
        <statistic-output value="./strategia1_config/../output/strategia1/50%25/statistic.xml"/>
    </output>

    <time>
        <step-length value="1"/>
    </time>

    <processing>
        <ignore-route-errors value="false"/>
    </processing>

    <report>
        <verbose value="true"/>
        <xml-validation value="never"/>
    </report>

    <traci_server>
        <remote-port value="51916"/>
    </traci_server>

    <gui_only>
        <gui-settings-file value="./strategia1_config/../gui-settings.cfg"/>
        <start value="true"/>
    </gui_only>

</configuration>
-->

<routes xmlns:xsi="http://www.w3.org/2001/XMLSchema-instance" xsi:noNamespaceSchemaLocation="http://sumo.dlr.de/xsd/routes_file.xsd">
    <vehicle id="116" type="vecType" depart="18240.00" arrival="18834.00">
        <route edges="48211196#5 -48211196#6 30029878#5 30029878#6 30029878#7 30029878#8 30029878#10 30029878#11 30029878#12 30029878#13 30029878#14 30029878#15 288065247#0 -24335483#5 -27166421#8 -27166421#7 -27166421#6 -27166421#5 27398045#7 8919058 8916882#0 -91181760#0 27166466#0 27166466#2 27166466#3 254297761#0 254297761#2 254297761#4 254758128#0 254758128#1 254448247#0 -85789165 85789166#0 88572895#0 214545530#0 214545530#3 214545530#4 214545530#7 143617593 254758139#0 254758139#1 162931811#0 -7373736#0 7373728 -133755923#0 -28518571#1 -28518571#0 -8916792"/>
    </vehicle>

    <vehicle id="64" type="vecType" depart="18060.00" arrival="18872.00">
        <routeDistribution>
            <route replacedOnEdge="50690291#0" replacedOnIndex="16" reason="traci:changeTarget" replacedAtTime="18338.00" probability="0" edges="28319343#2 28319343#3 24245406 224199013#0 224199013#1 224199013#2 224373753 88597563#0 256400244#0 225432457 -99231486 364480601#0 283537380#0 283537380#1 283537380#2 8915351 50690291#0 50690291#1"/>
            <route edges="28319343#2 28319343#3 24245406 224199013#0 224199013#1 224199013#2 224373753 88597563#0 256400244#0 225432457 -99231486 364480601#0 283537380#0 283537380#1 283537380#2 8915351 50690291#0 50690291#1 gneE4 90077241 8921938 120813417 31129372 -35675861#0 -35675862 27397692 8918460#0 99231463#0 224373751 28319343#0 28319343#1 28319343#2"/>
        </routeDistribution>
    </vehicle>

    <vehicle id="71" type="vecType" depart="18120.00" arrival="19059.00">
        <routeDistribution>
            <route replacedOnEdge="175354957#1" replacedOnIndex="14" reason="traci:changeTarget" replacedAtTime="18403.00" probability="0" edges="52432938#0 52432938#1 255351721#0 -27656675 26943623 133735130#0 255330036#7 -8919615#1 -8919615#0 8916553#1 -8916551 -88559680#2 88559650 175354957#0 175354957#1 50690291#1"/>
            <route edges="52432938#0 52432938#1 255351721#0 -27656675 26943623 133735130#0 255330036#7 -8919615#1 -8919615#0 8916553#1 -8916551 -88559680#2 88559650 175354957#0 175354957#1 50690291#1 gneE4 90077241 8921938 120813417 202485364 8915062 143617593 254758139#0 254758139#1 162931811#0 162931811#1 143617587 26943653#0 52432939 255330070#0 255330070#3 52432938#0"/>
        </routeDistribution>
    </vehicle>

    <vehicle id="94" type="vecType" depart="18120.00" arrival="19248.00">
        <routeDistribution>
            <route replacedOnEdge="50690291#0" replacedOnIndex="19" reason="traci:changeTarget" replacedAtTime="18607.00" probability="0" edges="254758124#0 254758124#1 86303763#6 86303763#10 86303763#11 86303763#14 86303763#17 111586257 28841123#0 224316522#0 133733590#0 -224384019#1 88597577#0 88559691#0 88559691#4 225518502#0 329607867 27772070 202317709 50690291#0 50690291#1"/>
            <route edges="254758124#0 254758124#1 86303763#6 86303763#10 86303763#11 86303763#14 86303763#17 111586257 28841123#0 224316522#0 133733590#0 -224384019#1 88597577#0 88559691#0 88559691#4 225518502#0 329607867 27772070 202317709 50690291#0 50690291#1 gneE4 90077241 8921938 120813417 202485364 8915062 -214545530#7 -214545530#6 -214545530#3 -214545530#2 -88572895#2 -88572895#0 -85789166#3 85789165 30832507#0 30832507#1 27400639#0 27400639#1 26938124#4 26938124#5 26938124#6 26938124#9 26938124#12 26938124#13 100400947#4 27166444 254758124#0"/>
        </routeDistribution>
    </vehicle>

    <vehicle id="228" type="vecType" depart="19080.00" arrival="19391.00">
        <route edges="144489137#3 254758126#1 254758126#2 254758126#3 254758126#4 254758126#5 254758126#6 25372932#0 25372932#1 254756525#23 254756525#25 254756525#26"/>
    </vehicle>

    <vehicle id="241" type="vecType" depart="19440.00" arrival="19562.00">
        <route edges="288065247#6 -288065247#6 254756525#20 254756525#23 254756525#25 254756525#26"/>
    </vehicle>

    <vehicle id="59" type="vecType" depart="18063.00" arrival="19931.00">
        <routeDistribution>
            <route replacedOnEdge="255330056#0" replacedOnIndex="31" reason="traci:setRoute" replacedAtTime="18543.00" probability="0" edges="-27029200#2 -27029200#1 -25758513 27029265#3 186400366#0 186400366#1 186400366#2 186400366#5 186400366#6 186400366#7 186400366#8 186400366#9 186400366#12 186400366#13 254299118#0 254299118#1 254299118#2 254299118#3 254308548#0 254308548#2 186400365 143666207#0 254299117#0 254299117#1 88559650 26944075#0 26944075#1 179235223 175129396#0 255330038#0 255330038#2 255330056#0 88466052#0"/>
            <route replacedOnEdge="88466052#1" replacedOnIndex="33" reason="traci:setRoute" replacedAtTime="18564.00" probability="0" edges="-27029200#2 -27029200#1 -25758513 27029265#3 186400366#0 186400366#1 186400366#2 186400366#5 186400366#6 186400366#7 186400366#8 186400366#9 186400366#12 186400366#13 254299118#0 254299118#1 254299118#2 254299118#3 254308548#0 254308548#2 186400365 143666207#0 254299117#0 254299117#1 88559650 26944075#0 26944075#1 179235223 175129396#0 255330038#0 255330038#2 255330056#0 88466052#0 88466052#1"/>
            <route replacedOnEdge="88466052#1" replacedOnIndex="33" reason="traci:changeTarget" replacedAtTime="18577.00" probability="0" edges="-27029200#2 -27029200#1 -25758513 27029265#3 186400366#0 186400366#1 186400366#2 186400366#5 186400366#6 186400366#7 186400366#8 186400366#9 186400366#12 186400366#13 254299118#0 254299118#1 254299118#2 254299118#3 254308548#0 254308548#2 186400365 143666207#0 254299117#0 254299117#1 88559650 26944075#0 26944075#1 179235223 175129396#0 255330038#0 255330038#2 255330056#0 88466052#0 88466052#1 8922263#1"/>
            <route edges="-27029200#2 -27029200#1 -25758513 27029265#3 186400366#0 186400366#1 186400366#2 186400366#5 186400366#6 186400366#7 186400366#8 186400366#9 186400366#12 186400366#13 254299118#0 254299118#1 254299118#2 254299118#3 254308548#0 254308548#2 186400365 143666207#0 254299117#0 254299117#1 88559650 26944075#0 26944075#1 179235223 175129396#0 255330038#0 255330038#2 255330056#0 88466052#0 88466052#1 8916922#0 24335490#0 88463829#0 88466055#0 88466055#1 99231468#0 35675861#0 35675861#1 283537552#0 283537552#1 283537644#0 283537644#2 88559702#0 88559702#1 88559702#2 25758528#0 25758528#1 8915151 31129732#1 26779355 8915704#0 8915704#1 254299121#6 254299121#8 254299121#9 25758513 27029200#0 27029200#2 -27029200#2"/>
        </routeDistribution>
        <stop parkingArea="parkingArea_88466052#1_0_438" duration="961.00" parking="1"/>
    </vehicle>

    <vehicle id="177" type="vecType" depart="18600.00" arrival="19945.00">
        <routeDistribution>
            <route replacedOnEdge="50690291#0" replacedOnIndex="33" reason="traci:changeTarget" replacedAtTime="19058.00" probability="0" edges="-30029708#0 30030100#0 30030100#2 148846995 148846996#0 148846996#1 148846996#2 -48211487#2 -48211487#1 -48211487#0 48211960 87376672#0 87376672#1 -91185877#1 -91185877#0 -254971056#1 -8922640#1 27054205#0 27054205#1 27054209#0 -254756526#1 -254396719#1 -254466686#4 27054213#4 27054213#6 91181774#0 8919020#0 88572905 91181770#0 283537380#0 283537380#1 283537380#2 8915351 50690291#0 50690291#1"/>
            <route edges="-30029708#0 30030100#0 30030100#2 148846995 148846996#0 148846996#1 148846996#2 -48211487#2 -48211487#1 -48211487#0 48211960 87376672#0 87376672#1 -91185877#1 -91185877#0 -254971056#1 -8922640#1 27054205#0 27054205#1 27054209#0 -254756526#1 -254396719#1 -254466686#4 27054213#4 27054213#6 91181774#0 8919020#0 88572905 91181770#0 283537380#0 283537380#1 283537380#2 8915351 50690291#0 50690291#1 gneE4 90077241 8921938 120813417 31129372 8922307 364480069 364480068#0 364480068#1 364480068#2 88572881#0 88572881#3 88597575#0 88597575#1 254466686#2 254466686#3 254466686#4 254396719#0 254756526#0 254971069#0 27054195#0 8922640#0 254971056#0 91185877#0 91185877#1 30030101#0 30030101#1 87376669 48211487#0 48211487#1 48211487#2 48211828 254756518 148874363#0 148874364#0 148874364#1 148874364#3 30029708#0 -30029708#0"/>
        </routeDistribution>
    </vehicle>

    <vehicle id="90" type="vecType" depart="18120.00" arrival="19947.00">
        <routeDistribution>
            <route replacedOnEdge="8919328#0" replacedOnIndex="19" reason="traci:setRoute" replacedAtTime="18528.00" probability="0" edges="-254758120#3 -254758120#2 -254758120#1 -254758120#0 254758126#0 144489137#7 254758131#0 254758131#2 254758132#0 254758132#2 290052332#1 290052332#4 -144489136 -204884397 -228196396 -204884387#2 8918656#0 88572948#0 91181771#4 8919328#0"/>
            <route replacedOnEdge="8919328#0" replacedOnIndex="19" reason="traci:changeTarget" replacedAtTime="18536.00" probability="0" edges="-254758120#3 -254758120#2 -254758120#1 -254758120#0 254758126#0 144489137#7 254758131#0 254758131#2 254758132#0 254758132#2 290052332#1 290052332#4 -144489136 -204884397 -228196396 -204884387#2 8918656#0 88572948#0 91181771#4 8919328#0 8919328#1"/>
            <route edges="-254758120#3 -254758120#2 -254758120#1 -254758120#0 254758126#0 144489137#7 254758131#0 254758131#2 254758132#0 254758132#2 290052332#1 290052332#4 -144489136 -204884397 -228196396 -204884387#2 8918656#0 88572948#0 91181771#4 8919328#0 255168046#2 -88559691#6 91181771#3 91181771#4 91181771#5 91181771#6 91181771#15 -88572895#2 -88572895#0 -85789166#3 85789165 30832507#0 30832507#1 27400639#0 27400639#1 27400639#2 277480564 254758120#0 254758120#1 254758120#2 254758120#3 -254758120#3"/>
        </routeDistribution>
        <stop parkingArea="parkingArea_8919328#0_0_377" duration="991.00" parking="1"/>
    </vehicle>

    <vehicle id="3" type="vecType" depart="18000.00" arrival="19949.00">
        <routeDistribution>
            <route replacedOnEdge="99231482" replacedOnIndex="28" reason="traci:setRoute" replacedAtTime="18484.00" probability="0" edges="-133781749 -133781759#2 -133781759#1 -133781759#0 -27167270#2 -27167270#1 -27167270#0 -263855294#3 -263855294#0 -35973460#1 -228215681 -225432464 -207761516 111547662#0 88572901#0 264874017#0 25657409#17 25657409#18 25657409#19 255168047#0 255168047#3 255168046#0 255168046#2 225518502#0 225518502#2 225518502#3 111049100#0 99231460 99231482 -27397692"/>
            <route replacedOnEdge="-27397692" replacedOnIndex="29" reason="traci:changeTarget" replacedAtTime="18516.00" probability="0" edges="-133781749 -133781759#2 -133781759#1 -133781759#0 -27167270#2 -27167270#1 -27167270#0 -263855294#3 -263855294#0 -35973460#1 -228215681 -225432464 -207761516 111547662#0 88572901#0 264874017#0 25657409#17 25657409#18 25657409#19 255168047#0 255168047#3 255168046#0 255168046#2 225518502#0 225518502#2 225518502#3 111049100#0 99231460 99231482 -27397692 99231466"/>
            <route edges="-133781749 -133781759#2 -133781759#1 -133781759#0 -27167270#2 -27167270#1 -27167270#0 -263855294#3 -263855294#0 -35973460#1 -228215681 -225432464 -207761516 111547662#0 88572901#0 264874017#0 25657409#17 25657409#18 25657409#19 255168047#0 255168047#3 255168046#0 255168046#2 225518502#0 225518502#2 225518502#3 111049100#0 99231460 99231482 -27397692 99231468#0 35675861#0 35675861#1 283537552#0 283537552#1 283537644#0 283537644#2 88559702#0 88559702#1 88559702#2 25758528#0 25758528#1 8915151 31129732#1 26779355 8915704#0 8915704#1 254299121#6 256787755#2 256787755#3 256787755#5 91181769#0 88572943#0 88572943#1 8920338 225847523 -225853134 -8922072#1 -8922072#0 133781749 -133781749"/>
        </routeDistribution>
        <stop parkingArea="parkingArea_-27397692_0_397" duration="1044.00" parking="1"/>
    </vehicle>

    <vehicle id="12" type="vecType" depart="18000.00" arrival="19964.00">
        <routeDistribution>
            <route replacedOnEdge="8922307" replacedOnIndex="23" reason="traci:setRoute" replacedAtTime="18426.00" probability="0" edges="-23883761 28518571#1 133755923#0 -7373728 7373736#0 -162931811#0 141688972#2 255330036#0 255330036#3 255330036#4 255330036#5 255330036#7 -8919615#1 -8919615#0 8916553#1 -8916551 -88559680#2 -88559661#2 28842183 -283537644#1 -283537552#1 -283537552#0 -35675861#1 8922307 364480601#0"/>
            <route replacedOnEdge="364480601#0" replacedOnIndex="24" reason="traci:changeTarget" replacedAtTime="18433.00" probability="0" edges="-23883761 28518571#1 133755923#0 -7373728 7373736#0 -162931811#0 141688972#2 255330036#0 255330036#3 255330036#4 255330036#5 255330036#7 -8919615#1 -8919615#0 8916553#1 -8916551 -88559680#2 -88559661#2 28842183 -283537644#1 -283537552#1 -283537552#0 -35675861#1 8922307 364480601#0 283537380#0"/>
            <route edges="-23883761 28518571#1 133755923#0 -7373728 7373736#0 -162931811#0 141688972#2 255330036#0 255330036#3 255330036#4 255330036#5 255330036#7 -8919615#1 -8919615#0 8916553#1 -8916551 -88559680#2 -88559661#2 28842183 -283537644#1 -283537552#1 -283537552#0 -35675861#1 8922307 364480601#0 283537380#0 283537380#1 283537380#2 283537552#0 283537552#1 283537644#0 283537644#2 88559702#0 88559702#1 88559702#2 25758528#0 25758528#1 143617584 143617593 254758139#0 254758139#1 162931811#0 -7373736#0 7373728 -133755923#0 -28518571#1 23883761 -23883761"/>
        </routeDistribution>
        <stop parkingArea="parkingArea_364480601#0_0_449" duration="1056.00" parking="1"/>
    </vehicle>

    <vehicle id="243" type="vecType" depart="19440.00" arrival="20173.00">
        <route edges="-48211196#4 -48211196#2 48211195#1 30030100#2 148846995 148846996#0 148846996#1 148846996#2 -48211487#2 -48211487#1 -48211487#0 48211960 87376672#0 87376672#1 -91185877#1 -91185877#0 -254971056#1 -8922640#1 27054205#0 27054205#1 8916867#0 8916867#2 287958607#0 287958607#2 287958607#3 287958607#4 133733590#0 -224384019#1 88597577#0 88559691#0 88559691#4 225518512#0 88559661#0 88559661#1 88559680#0 88559680#3 88559680#5 224384059#0 8920394#1 27656675 133755930#0 133755930#1"/>
    </vehicle>

    <vehicle id="302" type="vecType" depart="19800.00" arrival="20229.00">
        <routeDistribution>
            <route replacedOnEdge="50690291#0" replacedOnIndex="5" reason="traci:changeTarget" replacedAtTime="19875.00" probability="0" edges="-254758139#0 26779600 123741454#3 123741452 202317709 50690291#0 50690291#1"/>
            <route edges="-254758139#0 26779600 123741454#3 123741452 202317709 50690291#0 50690291#1 gneE4 90077241 8921938 120813417 202485364 8915062 143617593 254758139#0 -254758139#0"/>
        </routeDistribution>
    </vehicle>

    <vehicle id="19" type="vecType" depart="18000.00" arrival="20353.00">
        <routeDistribution>
            <route replacedOnEdge="225432462#0" replacedOnIndex="19" reason="traci:setRoute" replacedAtTime="18604.00" probability="0" edges="254396707#6 254396707#7 254396707#8 254758115#0 254758115#2 254758114#0 254758114#1 254758114#2 286003244#1 286003244#6 286003244#9 224316514#0 254306572#0 224316513#0 91181774#0 8919020#0 -88572970 -256400251#1 256400244#0 225432462#0 47172745"/>
            <route replacedOnEdge="47172745" replacedOnIndex="20" reason="traci:changeTarget" replacedAtTime="18640.00" probability="0" edges="254396707#6 254396707#7 254396707#8 254758115#0 254758115#2 254758114#0 254758114#1 254758114#2 286003244#1 286003244#6 286003244#9 224316514#0 254306572#0 224316513#0 91181774#0 8919020#0 -88572970 -256400251#1 256400244#0 225432462#0 47172745 91181771#0"/>
            <route edges="254396707#6 254396707#7 254396707#8 254758115#0 254758115#2 254758114#0 254758114#1 254758114#2 286003244#1 286003244#6 286003244#9 224316514#0 254306572#0 224316513#0 91181774#0 8919020#0 -88572970 -256400251#1 256400244#0 225432462#0 47172745 91181771#0 -88559691#3 88559669 88572965#0 88572965#1 111552058#0 88597544#0 144489134#2 184956229#0 111586254#0 28841120#0 gneE25 28841115#0 329596844#2 100400947#1 100400947#2 100400947#4 100400947#5 100400947#6 100400947#7 100400947#9 100400947#10 100400947#11 gneE9 254396707#6"/>
        </routeDistribution>
        <stop parkingArea="parkingArea_47172745_0_65" duration="1275.00" parking="1"/>
    </vehicle>

    <vehicle id="313" type="vecType" depart="19920.00" arrival="20415.00">
        <route edges="-111089307#4 111089307#4 -27029200#1 -25758513 27029265#3 186400366#0 186400366#1 186400366#2 247960234#1 247966218#0 247966218#3 247966218#4 247966218#5 247966218#6 247966218#7 247966218#8 141688972#0 141688972#1 162931811#0 162931811#1 143617587 26943653#0 52432939 255330070#0 255330070#3 52432936#0"/>
    </vehicle>

    <vehicle id="155" type="vecType" depart="18480.00" arrival="20441.00">
        <routeDistribution>
            <route replacedOnEdge="-99231475" replacedOnIndex="22" reason="traci:setRoute" replacedAtTime="18812.00" probability="0" edges="-133755930#1 -133755930#0 -27656675 26943623 133735130#0 255330036#7 -8919615#1 -8919615#0 8916553#1 -8916551 -88559680#2 -88559661#2 28842183 -283537644#1 -283537552#1 -283537552#0 -35675861#1 8922307 364480069 364480068#0 364480068#1 -225432462#1 -99231475"/>
            <route replacedOnEdge="-99231475" replacedOnIndex="22" reason="traci:changeTarget" replacedAtTime="18822.00" probability="0" edges="-133755930#1 -133755930#0 -27656675 26943623 133735130#0 255330036#7 -8919615#1 -8919615#0 8916553#1 -8916551 -88559680#2 -88559661#2 28842183 -283537644#1 -283537552#1 -283537552#0 -35675861#1 8922307 364480069 364480068#0 364480068#1 -225432462#1 -99231475 99231475"/>
            <route edges="-133755930#1 -133755930#0 -27656675 26943623 133735130#0 255330036#7 -8919615#1 -8919615#0 8916553#1 -8916551 -88559680#2 -88559661#2 28842183 -283537644#1 -283537552#1 -283537552#0 -35675861#1 8922307 364480069 364480068#0 364480068#1 -225432462#1 -99231475 99231475 225432457 27398032#0 -43100046 8917778 174822357#0 -255330036#12 -255330036#11 -255330036#10 88559680#5 224384059#0 8920394#1 27656675 133755930#0 133755930#1 -133755930#1"/>
        </routeDistribution>
        <stop parkingArea="parkingArea_-99231475_0_428" duration="1275.00" parking="1"/>
    </vehicle>

    <vehicle id="300" type="vecType" depart="19800.00" arrival="20447.00">
        <route edges="-242896157#0 8918460#0 99231463#0 224373751 28319343#0 8916375#0 8916375#1 254466686#0 254466686#1 254466686#2 254466686#3 254466686#4 254396719#0 254756526#0 254971069#0 27054195#0 8922640#0 254971056#0 91185877#0 91185877#1 30030101#0 30030101#1 87376669 48211487#0 48211487#1 48211487#2 48211828 254756518 148874363#0 148874364#0 148874364#1 148874364#3 30029708#0 30029708#1 30029708#2 30029866#0 30029866#2 30029866#3 87297168 204967525"/>
    </vehicle>

    <vehicle id="312" type="vecType" depart="19860.00" arrival="20462.00">
        <route edges="8922307 364480069 364480068#0 364480068#1 364480068#2 88572881#0 88572881#3 88597575#0 88597553#1 88597553#2 254971067#0 254466695#0 254466695#2 254466695#3 329596844#1 28841115#2 91181759#2 100400946 91181760#0 91181760#1 27166421#1 254756525#19 254756525#20 254756525#23 254756525#25 254756525#26"/>
    </vehicle>

    <vehicle id="49" type="vecType" depart="18063.00" arrival="20480.00">
        <routeDistribution>
            <route replacedOnEdge="31129732#0" replacedOnIndex="15" reason="traci:setRoute" replacedAtTime="18502.00" probability="0" edges="31129765 123741465 123741454#0 123741454#1 123741454#2 123741454#3 123741452 202317709 50690291#0 50690291#1 gneE4 90077241 8921938 120813417 202485364 31129732#0"/>
            <route replacedOnEdge="31129732#0" replacedOnIndex="15" reason="traci:changeTarget" replacedAtTime="18511.00" probability="0" edges="31129765 123741465 123741454#0 123741454#1 123741454#2 123741454#3 123741452 202317709 50690291#0 50690291#1 gneE4 90077241 8921938 120813417 202485364 31129732#0 31129732#1"/>
            <route edges="31129765 123741465 123741454#0 123741454#1 123741454#2 123741454#3 123741452 202317709 50690291#0 50690291#1 gneE4 90077241 8921938 120813417 202485364 31129732#0 31129732#1 31129732#2 254299122 154966358 gneE27 31129765"/>
        </routeDistribution>
        <stop parkingArea="parkingArea_31129732#0_0_532" duration="1838.00" parking="1"/>
    </vehicle>

    <vehicle id="156" type="vecType" depart="18486.00" arrival="20508.00">
        <routeDistribution>
            <route replacedOnEdge="47108420#0" replacedOnIndex="20" reason="traci:setRoute" replacedAtTime="18810.00" probability="0" edges="-35977367#2 87297164#7 87297164#8 26938417 26938418#0 26938418#1 26938418#2 -24335483#8 -24335483#6 -24335483#5 -24335483#3 24335485#1 -30035647#1 8919205#0 8919205#12 8919205#16 8919205#17 8919205#18 8919205#21 8919205#24 47108420#0"/>
            <route replacedOnEdge="47108420#0" replacedOnIndex="20" reason="traci:changeTarget" replacedAtTime="18817.00" probability="0" edges="-35977367#2 87297164#7 87297164#8 26938417 26938418#0 26938418#1 26938418#2 -24335483#8 -24335483#6 -24335483#5 -24335483#3 24335485#1 -30035647#1 8919205#0 8919205#12 8919205#16 8919205#17 8919205#18 8919205#21 8919205#24 47108420#0 8922024#0"/>
            <route edges="-35977367#2 87297164#7 87297164#8 26938417 26938418#0 26938418#1 26938418#2 -24335483#8 -24335483#6 -24335483#5 -24335483#3 24335485#1 -30035647#1 8919205#0 8919205#12 8919205#16 8919205#17 8919205#18 8919205#21 8919205#24 47108420#0 -47108420#2 28231602#0 24245395#0 24245395#1 224384020#0 224384020#2 224384020#5 224384020#6 224384020#8 -24335485#3 24335483#1 24335483#4 -288065247#0 8920093#1 254758127#0 72981813#3 26938338#0 -87297164#7 35977367#2 -35977367#2"/>
        </routeDistribution>
        <stop parkingArea="parkingArea_47108420#0_0_17" duration="1355.00" parking="1"/>
    </vehicle>

    <vehicle id="89" type="vecType" depart="18126.00" arrival="20516.00">
        <routeDistribution>
            <route replacedOnEdge="254306572#0" replacedOnIndex="25" reason="traci:setRoute" replacedAtTime="18544.00" probability="0" edges="31129765 123741465 8915117 27432609 157812260#7 157812260#8 157812260#9 157812260#10 157812260#11 -88572941 -88572932#2 -88572932#1 -88572932#0 -51392400 -51392402#0 -51392402#1 -111560680 86334994#0 111552058#0 88597544#0 88597544#2 224316520#0 224316520#1 254297759#0 224316514#0 254306572#0"/>
            <route replacedOnEdge="254306572#0" replacedOnIndex="25" reason="traci:changeTarget" replacedAtTime="18552.00" probability="0" edges="31129765 123741465 8915117 27432609 157812260#7 157812260#8 157812260#9 157812260#10 157812260#11 -88572941 -88572932#2 -88572932#1 -88572932#0 -51392400 -51392402#0 -51392402#1 -111560680 86334994#0 111552058#0 88597544#0 88597544#2 224316520#0 224316520#1 254297759#0 224316514#0 254306572#0 -8920734"/>
            <route edges="31129765 123741465 8915117 27432609 157812260#7 157812260#8 157812260#9 157812260#10 157812260#11 -88572941 -88572932#2 -88572932#1 -88572932#0 -51392400 -51392402#0 -51392402#1 -111560680 86334994#0 111552058#0 88597544#0 88597544#2 224316520#0 224316520#1 254297759#0 224316514#0 254306572#0 -8920734 133733593#0 287958607#4 133733590#0 8918656#0 88572948#0 91181771#4 91181771#5 91181771#6 283534317#2 283534317#5 283534317#6 283534317#8 8915151 31129732#1 31129732#2 254299122 154966358 gneE27 31129765"/>
        </routeDistribution>
        <stop parkingArea="parkingArea_254306572#0_0_372" duration="1523.00" parking="1"/>
    </vehicle>

    <vehicle id="322" type="vecType" depart="20040.00" arrival="20524.00">
        <route edges="99231460 27398032#0 -43100046 8917778 174822357#0 -255330036#12 -255330036#11 -255330036#10 -255330036#9 -255330036#8 -255330036#7 -255330036#6 -255330036#4 -255330036#3 -255330036#2 -141688972#2 162931811#0 -7373736#0 7373728 -133755923#0 -28518571#1 -28518571#0 -8916792"/>
    </vehicle>

    <vehicle id="25" type="vecType" depart="18003.00" arrival="20525.00">
        <routeDistribution>
            <route replacedOnEdge="-99231466" replacedOnIndex="19" reason="traci:setRoute" replacedAtTime="18435.00" probability="0" edges="-23883761 28518571#1 133755923#0 133755923#1 143617587 -143617589#6 -143617589#2 -143617589#1 -111550911#3 -111550911#2 -111550911#1 -111550911#0 -111550910#2 -111550910#1 -111550910#0 8922234#0 8922234#2 -255330038#2 -255330038#1 -99231466 99231468#0"/>
            <route replacedOnEdge="35675861#0" replacedOnIndex="21" reason="traci:setRoute" replacedAtTime="18452.00" probability="0" edges="-23883761 28518571#1 133755923#0 133755923#1 143617587 -143617589#6 -143617589#2 -143617589#1 -111550911#3 -111550911#2 -111550911#1 -111550911#0 -111550910#2 -111550910#1 -111550910#0 8922234#0 8922234#2 -255330038#2 -255330038#1 -99231466 99231468#0 35675861#0"/>
            <route replacedOnEdge="35675861#0" replacedOnIndex="21" reason="traci:changeTarget" replacedAtTime="18457.00" probability="0" edges="-23883761 28518571#1 133755923#0 133755923#1 143617587 -143617589#6 -143617589#2 -143617589#1 -111550911#3 -111550911#2 -111550911#1 -111550911#0 -111550910#2 -111550910#1 -111550910#0 8922234#0 8922234#2 -255330038#2 -255330038#1 -99231466 99231468#0 35675861#0 35675861#1"/>
            <route edges="-23883761 28518571#1 133755923#0 133755923#1 143617587 -143617589#6 -143617589#2 -143617589#1 -111550911#3 -111550911#2 -111550911#1 -111550911#0 -111550910#2 -111550910#1 -111550910#0 8922234#0 8922234#2 -255330038#2 -255330038#1 -99231466 99231468#0 35675861#0 35675861#1 283537552#0 283537552#1 283537644#0 283537644#2 88559702#0 88559702#1 88559702#2 25758528#0 25758528#1 143617584 143617593 254758139#0 254758139#1 162931811#0 -7373736#0 7373728 -133755923#0 -28518571#1 23883761 -23883761"/>
        </routeDistribution>
        <stop parkingArea="parkingArea_35675861#0_0_89" duration="1629.00" parking="1"/>
    </vehicle>

    <vehicle id="318" type="vecType" depart="19980.00" arrival="20531.00">
        <routeDistribution>
            <route replacedOnEdge="50690291#0" replacedOnIndex="10" reason="traci:changeTarget" replacedAtTime="20137.00" probability="0" edges="-88572970 -256400251#1 256400244#0 225432457 -99231486 364480601#0 283537380#0 283537380#1 283537380#2 8915351 50690291#0 50690291#1"/>
            <route edges="-88572970 -256400251#1 256400244#0 225432457 -99231486 364480601#0 283537380#0 283537380#1 283537380#2 8915351 50690291#0 50690291#1 gneE4 90077241 8921938 120813417 31129372 8922307 364480069 364480068#0 364480068#1 364480068#2 88572970 -88572970"/>
        </routeDistribution>
    </vehicle>

    <vehicle id="323" type="vecType" depart="20040.00" arrival="20537.00">
        <route edges="254466686#4 254396719#0 254756526#0 254971069#0 27054195#0 8922640#0 254971056#0 91185877#0 91185877#1 30030101#0 30030101#1 87376669 48211487#0 48211487#1 48211487#2 48211828 254756518 148874363#0 148874364#0 148874364#1 148874364#3 30029708#0 30029708#1 30029708#2 30029866#0 30029866#2 30029866#3 87297168 204967525"/>
    </vehicle>

    <vehicle id="174" type="vecType" depart="18552.00" arrival="20644.00">
        <routeDistribution>
            <route replacedOnEdge="27146036#1" replacedOnIndex="21" reason="traci:setRoute" replacedAtTime="18914.00" probability="0" edges="90077241 8921938 110361656 111319423 27397919 179235243#1 364480068#1 364480068#2 -256400251#1 -111560682 224373751 28319343#0 28319343#1 28319343#2 28319343#3 254756521#0 254756521#3 254756521#5 254756521#6 32931798#3 27146036#0 27146036#1 -p3#1"/>
            <route replacedOnEdge="27398048#2" replacedOnIndex="23" reason="traci:setRoute" replacedAtTime="18976.00" probability="0" edges="90077241 8921938 110361656 111319423 27397919 179235243#1 364480068#1 364480068#2 -256400251#1 -111560682 224373751 28319343#0 28319343#1 28319343#2 28319343#3 254756521#0 254756521#3 254756521#5 254756521#6 32931798#3 27146036#0 27146036#1 -p3#1 27398048#2"/>
            <route replacedOnEdge="27398048#2" replacedOnIndex="23" reason="traci:changeTarget" replacedAtTime="18982.00" probability="0" edges="90077241 8921938 110361656 111319423 27397919 179235243#1 364480068#1 364480068#2 -256400251#1 -111560682 224373751 28319343#0 28319343#1 28319343#2 28319343#3 254756521#0 254756521#3 254756521#5 254756521#6 32931798#3 27146036#0 27146036#1 -p3#1 27398048#2 254756517"/>