<?xml version="1.0" encoding="UTF-8"?>

<!-- generated on 2022-12-14 00:02:35 by Eclipse SUMO sumo Version 1.14.1
<configuration xmlns:xsi="http://www.w3.org/2001/XMLSchema-instance" xsi:noNamespaceSchemaLocation="http://sumo.dlr.de/xsd/sumoConfiguration.xsd">

    <input>
        <net-file value="./strategia2_config/../san_francisco.net.xml"/>
        <route-files value="./strategia2_config/../san_francisco.rou.xml"/>
        <additional-files value="./strategia2_config/../san_francisco.poly.xml,./strategia2_config/../parking_capacity_100%25/off_parking_100%25.add.xml,./strategia2_config/../parking_capacity_100%25/on_parking_100%25.add.xml"/>
    </input>

    <output>
        <tripinfo-output value="./strategia2_config/../output/strategia2/100%25/tripinfo.xml"/>
        <vehroute-output value="./strategia2_config/../output/strategia2/100%25/vehroute.xml"/>
        <stop-output value="./strategia2_config/../output/strategia2/100%25/stops.xml"/>
        <collision-output value="./strategia2_config/../output/strategia2/100%25/collision.xml"/>
        <statistic-output value="./strategia2_config/../output/strategia2/100%25/statistic.xml"/>
    </output>

    <time>
        <step-length value="1"/>
    </time>

    <processing>
        <ignore-route-errors value="false"/>
        <time-to-teleport value="-1"/>
    </processing>

    <report>
        <verbose value="true"/>
        <xml-validation value="never"/>
    </report>

    <traci_server>
        <remote-port value="61596"/>
    </traci_server>

    <gui_only>
        <gui-settings-file value="./strategia2_config/../gui-settings.cfg"/>
        <start value="true"/>
    </gui_only>

</configuration>
-->

<tripinfos xmlns:xsi="http://www.w3.org/2001/XMLSchema-instance" xsi:noNamespaceSchemaLocation="http://sumo.dlr.de/xsd/tripinfo_file.xsd">
    <tripinfo id="30" depart="18000.00" departLane="-91181760#0_0" departPos="5.10" departSpeed="0.00" departDelay="0.00" arrival="18335.00" arrivalLane="-91181760#0_0" arrivalPos="79.70" arrivalSpeed="12.36" duration="335.00" routeLength="3660.42" waitingTime="5.00" waitingCount="2" stopTime="3.00" timeLoss="53.99" rerouteNo="1" devices="vehroute_30 tripinfo_30" vType="vecType" speedFactor="1.18" vaporized=""/>
    <tripinfo id="1" depart="18000.00" departLane="31129765_0" departPos="5.10" departSpeed="0.00" departDelay="0.00" arrival="18353.00" arrivalLane="31129765_0" arrivalPos="639.51" arrivalSpeed="20.54" duration="353.00" routeLength="4341.32" waitingTime="36.00" waitingCount="2" stopTime="3.00" timeLoss="82.17" rerouteNo="1" devices="vehroute_1 tripinfo_1" vType="vecType" speedFactor="0.94" vaporized=""/>
    <tripinfo id="45" depart="18060.00" departLane="31129765_0" departPos="5.10" departSpeed="0.00" departDelay="0.00" arrival="18364.00" arrivalLane="31129765_0" arrivalPos="639.51" arrivalSpeed="24.12" duration="304.00" routeLength="4234.28" waitingTime="40.00" waitingCount="1" stopTime="3.00" timeLoss="78.14" rerouteNo="1" devices="vehroute_45 tripinfo_45" vType="vecType" speedFactor="1.09" vaporized=""/>
    <tripinfo id="60" depart="18060.00" departLane="8916792_0" departPos="5.10" departSpeed="0.00" departDelay="0.00" arrival="18487.00" arrivalLane="8916792_0" arrivalPos="615.11" arrivalSpeed="11.27" duration="427.00" routeLength="3743.73" waitingTime="71.00" waitingCount="3" stopTime="3.00" timeLoss="114.61" rerouteNo="1" devices="vehroute_60 tripinfo_60" vType="vecType" speedFactor="1.08" vaporized=""/>
    <tripinfo id="74" depart="18120.00" departLane="144489137#0_0" departPos="5.10" departSpeed="0.00" departDelay="0.00" arrival="18540.00" arrivalLane="144489137#0_0" arrivalPos="135.49" arrivalSpeed="9.74" duration="420.00" routeLength="2278.79" waitingTime="158.00" waitingCount="6" stopTime="3.00" timeLoss="206.16" rerouteNo="2" devices="vehroute_74 tripinfo_74" vType="vecType" speedFactor="0.96" vaporized=""/>
    <tripinfo id="76" depart="18120.00" departLane="225806031#0_0" departPos="5.10" departSpeed="0.00" departDelay="0.00" arrival="18577.00" arrivalLane="225806031#0_0" arrivalPos="142.16" arrivalSpeed="10.31" duration="457.00" routeLength="3181.76" waitingTime="122.00" waitingCount="5" stopTime="3.00" timeLoss="179.61" rerouteNo="1" devices="vehroute_76 tripinfo_76" vType="vecType" speedFactor="1.03" vaporized=""/>
    <tripinfo id="21" depart="18000.00" departLane="27167762_0" departPos="5.10" departSpeed="0.00" departDelay="0.00" arrival="18621.00" arrivalLane="27167762_0" arrivalPos="139.02" arrivalSpeed="22.16" duration="621.00" routeLength="5420.07" waitingTime="170.00" waitingCount="8" stopTime="3.00" timeLoss="252.27" rerouteNo="2" devices="vehroute_21 tripinfo_21" vType="vecType" speedFactor="1.01" vaporized=""/>
    <tripinfo id="10" depart="18000.00" departLane="90077241_0" departPos="5.10" departSpeed="0.00" departDelay="0.00" arrival="18640.00" arrivalLane="90077241_0" arrivalPos="3225.35" arrivalSpeed="30.49" duration="640.00" routeLength="11810.95" waitingTime="102.00" waitingCount="5" stopTime="3.00" timeLoss="178.48" rerouteNo="2" devices="vehroute_10 tripinfo_10" vType="vecType" speedFactor="1.09" vaporized=""/>
    <tripinfo id="49" depart="18063.00" departLane="31129765_0" departPos="5.10" departSpeed="0.00" departDelay="3.00" arrival="18647.00" arrivalLane="31129765_0" arrivalPos="639.51" arrivalSpeed="18.39" duration="584.00" routeLength="12944.78" waitingTime="1.00" waitingCount="1" stopTime="3.00" timeLoss="35.15" rerouteNo="1" devices="vehroute_49 tripinfo_49" vType="vecType" speedFactor="0.85" vaporized=""/>
    <tripinfo id="93" depart="18120.00" departLane="-254758121#2_0" departPos="5.10" departSpeed="0.00" departDelay="0.00" arrival="18673.00" arrivalLane="-254758121#2_0" arrivalPos="99.35" arrivalSpeed="9.71" duration="553.00" routeLength="4284.51" waitingTime="72.00" waitingCount="3" stopTime="3.00" timeLoss="133.81" rerouteNo="2" devices="vehroute_93 tripinfo_93" vType="vecType" speedFactor="0.92" vaporized=""/>
    <tripinfo id="16" depart="18006.00" departLane="90077241_0" departPos="5.10" departSpeed="0.00" departDelay="6.00" arrival="18688.00" arrivalLane="90077241_0" arrivalPos="3225.35" arrivalSpeed="24.89" duration="682.00" routeLength="11625.26" waitingTime="98.00" waitingCount="3" stopTime="3.00" timeLoss="154.71" rerouteNo="1" devices="vehroute_16 tripinfo_16" vType="vecType" speedFactor="0.88" vaporized=""/>
    <tripinfo id="28" depart="18009.00" departLane="90077241_0" departPos="5.10" departSpeed="0.00" departDelay="9.00" arrival="18690.00" arrivalLane="90077241_0" arrivalPos="3225.35" arrivalSpeed="32.15" duration="681.00" routeLength="12386.24" waitingTime="145.00" waitingCount="4" stopTime="3.00" timeLoss="211.45" rerouteNo="3" devices="vehroute_28 tripinfo_28" vType="vecType" speedFactor="1.13" vaporized=""/>
    <tripinfo id="36" depart="18009.00" departLane="123867455_0" departPos="5.10" departSpeed="0.00" departDelay="9.00" arrival="18704.00" arrivalLane="123867455_0" arrivalPos="904.85" arrivalSpeed="27.89" duration="695.00" routeLength="5901.75" waitingTime="225.00" waitingCount="7" stopTime="3.00" timeLoss="308.27" rerouteNo="2" devices="vehroute_36 tripinfo_36" vType="vecType" speedFactor="0.97" vaporized=""/>
    <tripinfo id="31" depart="18006.00" departLane="123867455_0" departPos="5.10" departSpeed="0.00" departDelay="6.00" arrival="18708.00" arrivalLane="123867455_0" arrivalPos="904.85" arrivalSpeed="33.23" duration="702.00" routeLength="7632.90" waitingTime="129.00" waitingCount="7" stopTime="3.00" timeLoss="234.26" rerouteNo="1" devices="vehroute_31 tripinfo_31" vType="vecType" speedFactor="1.15" vaporized=""/>
    <tripinfo id="13" depart="18003.00" departLane="90077241_0" departPos="5.10" departSpeed="0.00" departDelay="3.00" arrival="18748.00" arrivalLane="90077241_0" arrivalPos="3225.35" arrivalSpeed="31.99" duration="745.00" routeLength="12752.38" waitingTime="148.00" waitingCount="6" stopTime="3.00" timeLoss="221.65" rerouteNo="1" devices="vehroute_13 tripinfo_13" vType="vecType" speedFactor="1.12" vaporized=""/>
    <tripinfo id="63" depart="18063.00" departLane="-204967525_0" departPos="5.10" departSpeed="0.00" departDelay="3.00" arrival="18749.00" arrivalLane="-204967525_1" arrivalPos="146.26" arrivalSpeed="10.58" duration="686.00" routeLength="4830.14" waitingTime="149.00" waitingCount="8" stopTime="3.00" timeLoss="244.82" rerouteNo="1" devices="vehroute_63 tripinfo_63" vType="vecType" speedFactor="0.99" vaporized=""/>
    <tripinfo id="77" depart="18120.00" departLane="90077241_0" departPos="5.10" departSpeed="0.00" departDelay="0.00" arrival="18751.00" arrivalLane="90077241_0" arrivalPos="3225.35" arrivalSpeed="27.87" duration="631.00" routeLength="11810.95" waitingTime="52.00" waitingCount="3" stopTime="3.00" timeLoss="118.19" rerouteNo="1" devices="vehroute_77 tripinfo_77" vType="vecType" speedFactor="0.98" vaporized=""/>
    <tripinfo id="15" depart="18000.00" departLane="-24310636#2_0" departPos="5.10" departSpeed="0.00" departDelay="0.00" arrival="18752.00" arrivalLane="-24310636#2_1" arrivalPos="108.36" arrivalSpeed="10.30" duration="752.00" routeLength="6010.81" waitingTime="145.00" waitingCount="8" stopTime="3.00" timeLoss="229.00" rerouteNo="1" devices="vehroute_15 tripinfo_15" vType="vecType" speedFactor="0.93" vaporized=""/>
    <tripinfo id="39" depart="18006.00" departLane="31129765_0" departPos="5.10" departSpeed="0.00" departDelay="6.00" arrival="18759.00" arrivalLane="31129765_0" arrivalPos="639.51" arrivalSpeed="20.02" duration="753.00" routeLength="6533.65" waitingTime="227.00" waitingCount="8" stopTime="3.00" timeLoss="305.92" rerouteNo="3" devices="vehroute_39 tripinfo_39" vType="vecType" speedFactor="0.90" vaporized=""/>
    <tripinfo id="33" depart="18000.00" departLane="144489137#0_0" departPos="5.10" departSpeed="0.00" departDelay="0.00" arrival="18780.00" arrivalLane="144489137#0_0" arrivalPos="135.49" arrivalSpeed="12.86" duration="780.00" routeLength="3872.00" waitingTime="387.00" waitingCount="14" stopTime="3.00" timeLoss="484.29" rerouteNo="1" devices="vehroute_33 tripinfo_33" vType="vecType" speedFactor="1.17" vaporized=""/>
    <tripinfo id="82" depart="18123.00" departLane="-133781749_0" departPos="5.10" departSpeed="0.00" departDelay="3.00" arrival="18784.00" arrivalLane="-133781749_0" arrivalPos="138.68" arrivalSpeed="10.40" duration="661.00" routeLength="5499.56" waitingTime="120.00" waitingCount="8" stopTime="3.00" timeLoss="228.49" rerouteNo="1" devices="vehroute_82 tripinfo_82" vType="vecType" speedFactor="1.02" vaporized=""/>
    <tripinfo id="27" depart="18000.00" departLane="-8916048_0" departPos="5.10" departSpeed="0.00" departDelay="0.00" arrival="18793.00" arrivalLane="-8916048_0" arrivalPos="126.72" arrivalSpeed="10.04" duration="793.00" routeLength="6742.86" waitingTime="122.00" waitingCount="4" stopTime="3.00" timeLoss="212.28" rerouteNo="1" devices="vehroute_27 tripinfo_27" vType="vecType" speedFactor="0.95" vaporized=""/>
    <tripinfo id="0" depart="18000.00" departLane="84823308_0" departPos="5.10" departSpeed="0.00" departDelay="0.00" arrival="18794.00" arrivalLane="84823308_0" arrivalPos="275.63" arrivalSpeed="11.80" duration="794.00" routeLength="5732.03" waitingTime="218.00" waitingCount="8" stopTime="3.00" timeLoss="307.25" rerouteNo="2" devices="vehroute_0 tripinfo_0" vType="vecType" speedFactor="1.06" vaporized=""/>
    <tripinfo id="40" depart="18000.00" departLane="-206679802#4_0" departPos="5.10" departSpeed="0.00" departDelay="0.00" arrival="18826.00" arrivalLane="-206679802#4_0" arrivalPos="292.11" arrivalSpeed="10.24" duration="826.00" routeLength="6024.23" waitingTime="207.00" waitingCount="7" stopTime="3.00" timeLoss="301.48" rerouteNo="2" devices="vehroute_40 tripinfo_40" vType="vecType" speedFactor="1.03" vaporized=""/>
    <tripinfo id="84" depart="18123.00" departLane="90077241_0" departPos="5.10" departSpeed="0.00" departDelay="3.00" arrival="18849.00" arrivalLane="90077241_0" arrivalPos="3225.35" arrivalSpeed="33.28" duration="726.00" routeLength="12280.95" waitingTime="179.00" waitingCount="6" stopTime="3.00" timeLoss="247.74" rerouteNo="1" devices="vehroute_84 tripinfo_84" vType="vecType" speedFactor="1.15" vaporized=""/>
    <tripinfo id="24" depart="18003.00" departLane="123867455_0" departPos="5.10" departSpeed="0.00" departDelay="3.00" arrival="18859.00" arrivalLane="123867455_0" arrivalPos="904.85" arrivalSpeed="23.87" duration="856.00" routeLength="6219.34" waitingTime="231.00" waitingCount="10" stopTime="3.00" timeLoss="334.82" rerouteNo="2" devices="vehroute_24 tripinfo_24" vType="vecType" speedFactor="0.83" vaporized=""/>
    <tripinfo id="47" depart="18060.00" departLane="90077241_0" departPos="5.10" departSpeed="0.00" departDelay="0.00" arrival="18868.00" arrivalLane="90077241_0" arrivalPos="3225.35" arrivalSpeed="25.16" duration="808.00" routeLength="12217.48" waitingTime="139.00" waitingCount="5" stopTime="3.00" timeLoss="205.43" rerouteNo="2" devices="vehroute_47 tripinfo_47" vType="vecType" speedFactor="0.90" vaporized=""/>
    <tripinfo id="64" depart="18060.00" departLane="28319343#2_0" departPos="5.10" departSpeed="0.00" departDelay="0.00" arrival="18872.00" arrivalLane="28319343#2_0" arrivalPos="90.58" arrivalSpeed="9.54" duration="812.00" routeLength="9974.14" waitingTime="207.00" waitingCount="8" stopTime="3.00" timeLoss="282.66" rerouteNo="2" devices="vehroute_64 tripinfo_64" vType="vecType" speedFactor="0.94" vaporized=""/>
    <tripinfo id="9" depart="18000.00" departLane="23959829#0_0" departPos="5.10" departSpeed="0.00" departDelay="0.00" arrival="18876.00" arrivalLane="23959829#0_0" arrivalPos="45.86" arrivalSpeed="8.88" duration="876.00" routeLength="6745.88" waitingTime="130.00" waitingCount="7" stopTime="3.00" timeLoss="233.63" rerouteNo="2" devices="vehroute_9 tripinfo_9" vType="vecType" speedFactor="0.86" vaporized=""/>
    <tripinfo id="56" depart="18066.00" departLane="31129765_0" departPos="5.10" departSpeed="0.00" departDelay="6.00" arrival="18878.00" arrivalLane="31129765_0" arrivalPos="639.51" arrivalSpeed="19.96" duration="812.00" routeLength="6840.91" waitingTime="245.00" waitingCount="9" stopTime="3.00" timeLoss="333.23" rerouteNo="2" devices="vehroute_56 tripinfo_56" vType="vecType" speedFactor="0.90" vaporized=""/>
    <tripinfo id="73" depart="18120.00" departLane="-204967525_0" departPos="5.10" departSpeed="0.00" departDelay="0.00" arrival="18878.00" arrivalLane="-204967525_1" arrivalPos="146.26" arrivalSpeed="11.68" duration="758.00" routeLength="5090.57" waitingTime="233.00" waitingCount="8" stopTime="3.00" timeLoss="322.99" rerouteNo="1" devices="vehroute_73 tripinfo_73" vType="vecType" speedFactor="1.06" vaporized=""/>
    <tripinfo id="12" depart="18000.00" departLane="-23883761_0" departPos="5.10" departSpeed="0.00" departDelay="0.00" arrival="18881.00" arrivalLane="-23883761_0" arrivalPos="197.88" arrivalSpeed="10.55" duration="881.00" routeLength="5849.00" waitingTime="275.00" waitingCount="11" stopTime="3.00" timeLoss="377.88" rerouteNo="2" devices="vehroute_12 tripinfo_12" vType="vecType" speedFactor="1.05" vaporized=""/>
    <tripinfo id="42" depart="18009.00" departLane="31129765_0" departPos="5.10" departSpeed="0.00" departDelay="9.00" arrival="18891.00" arrivalLane="31129765_0" arrivalPos="639.51" arrivalSpeed="24.05" duration="882.00" routeLength="7763.38" waitingTime="301.00" waitingCount="12" stopTime="3.00" timeLoss="410.87" rerouteNo="1" devices="vehroute_42 tripinfo_42" vType="vecType" speedFactor="1.09" vaporized=""/>
    <tripinfo id="29" depart="18000.00" departLane="-35977367#2_0" departPos="5.10" departSpeed="0.00" departDelay="0.00" arrival="18893.00" arrivalLane="-35977367#2_0" arrivalPos="431.73" arrivalSpeed="9.90" duration="893.00" routeLength="6070.29" waitingTime="211.00" waitingCount="8" stopTime="3.00" timeLoss="306.92" rerouteNo="2" devices="vehroute_29 tripinfo_29" vType="vecType" speedFactor="0.93" vaporized=""/>
    <tripinfo id="85" depart="18126.00" departLane="90077241_0" departPos="5.10" departSpeed="0.00" departDelay="6.00" arrival="18893.00" arrivalLane="90077241_0" arrivalPos="3225.35" arrivalSpeed="27.20" duration="767.00" routeLength="11984.76" waitingTime="162.00" waitingCount="7" stopTime="3.00" timeLoss="234.37" rerouteNo="1" devices="vehroute_85 tripinfo_85" vType="vecType" speedFactor="0.98" vaporized=""/>
    <tripinfo id="99" depart="18180.00" departLane="-27029204_0" departPos="5.10" departSpeed="0.00" departDelay="0.00" arrival="18917.00" arrivalLane="-27029204_0" arrivalPos="195.60" arrivalSpeed="11.01" duration="737.00" routeLength="5700.35" waitingTime="224.00" waitingCount="9" stopTime="3.00" timeLoss="319.75" rerouteNo="1" devices="vehroute_99 tripinfo_99" vType="vecType" speedFactor="1.10" vaporized=""/>
    <tripinfo id="20" depart="18000.00" departLane="123867455_0" departPos="5.10" departSpeed="0.00" departDelay="0.00" arrival="18926.00" arrivalLane="123867455_0" arrivalPos="904.85" arrivalSpeed="28.29" duration="926.00" routeLength="7628.28" waitingTime="301.00" waitingCount="12" stopTime="3.00" timeLoss="404.71" rerouteNo="2" devices="vehroute_20 tripinfo_20" vType="vecType" speedFactor="1.02" vaporized=""/>
    <tripinfo id="53" depart="18060.00" departLane="-27029200#2_0" departPos="5.10" departSpeed="0.00" departDelay="0.00" arrival="18931.00" arrivalLane="-27029200#2_0" arrivalPos="66.62" arrivalSpeed="11.90" duration="871.00" routeLength="6523.13" waitingTime="272.00" waitingCount="11" stopTime="3.00" timeLoss="385.24" rerouteNo="2" devices="vehroute_53 tripinfo_53" vType="vecType" speedFactor="1.10" vaporized=""/>
    <tripinfo id="88" depart="18123.00" departLane="31129765_0" departPos="5.10" departSpeed="0.00" departDelay="3.00" arrival="18931.00" arrivalLane="31129765_0" arrivalPos="639.51" arrivalSpeed="21.23" duration="808.00" routeLength="6946.37" waitingTime="281.00" waitingCount="9" stopTime="3.00" timeLoss="370.94" rerouteNo="1" devices="vehroute_88 tripinfo_88" vType="vecType" speedFactor="1.01" vaporized=""/>
    <tripinfo id="23" depart="18000.00" departLane="133733582#2_0" departPos="5.10" departSpeed="0.00" departDelay="0.00" arrival="18954.00" arrivalLane="133733582#2_0" arrivalPos="149.99" arrivalSpeed="9.39" duration="954.00" routeLength="6926.78" waitingTime="212.00" waitingCount="11" stopTime="3.00" timeLoss="316.58" rerouteNo="1" devices="vehroute_23 tripinfo_23" vType="vecType" speedFactor="0.89" vaporized=""/>
    <tripinfo id="43" depart="18012.00" departLane="123867455_0" departPos="5.10" departSpeed="0.00" departDelay="12.00" arrival="18954.00" arrivalLane="123867455_0" arrivalPos="904.85" arrivalSpeed="30.13" duration="942.00" routeLength="8280.56" waitingTime="233.00" waitingCount="12" stopTime="3.00" timeLoss="366.60" rerouteNo="2" devices="vehroute_43 tripinfo_43" vType="vecType" speedFactor="1.04" vaporized=""/>
    <tripinfo id="68" depart="18060.00" departLane="27167762_0" departPos="5.10" departSpeed="0.00" departDelay="0.00" arrival="18954.00" arrivalLane="27167762_0" arrivalPos="139.02" arrivalSpeed="22.08" duration="894.00" routeLength="6786.77" waitingTime="305.00" waitingCount="12" stopTime="6.00" timeLoss="414.62" rerouteNo="2" devices="vehroute_68 tripinfo_68" vType="vecType" speedFactor="1.04" vaporized=""/>
    <tripinfo id="90" depart="18120.00" departLane="-254758120#3_0" departPos="5.10" departSpeed="0.00" departDelay="0.00" arrival="18957.00" arrivalLane="-254758120#3_0" arrivalPos="147.41" arrivalSpeed="10.10" duration="837.00" routeLength="5221.94" waitingTime="284.00" waitingCount="10" stopTime="3.00" timeLoss="374.01" rerouteNo="1" devices="vehroute_90 tripinfo_90" vType="vecType" speedFactor="1.02" vaporized=""/>
    <tripinfo id="3" depart="18000.00" departLane="-133781749_0" departPos="5.10" departSpeed="0.00" departDelay="0.00" arrival="18959.00" arrivalLane="-133781749_0" arrivalPos="138.68" arrivalSpeed="11.05" duration="959.00" routeLength="7501.04" waitingTime="256.00" waitingCount="14" stopTime="3.00" timeLoss="386.61" rerouteNo="1" devices="vehroute_3 tripinfo_3" vType="vecType" speedFactor="1.08" vaporized=""/>
    <tripinfo id="75" depart="18120.00" departLane="-254297762#2_0" departPos="5.10" departSpeed="0.00" departDelay="0.00" arrival="18961.00" arrivalLane="-254297762#2_0" arrivalPos="291.17" arrivalSpeed="9.94" duration="841.00" routeLength="5758.38" waitingTime="210.00" waitingCount="10" stopTime="3.00" timeLoss="314.76" rerouteNo="2" devices="vehroute_75 tripinfo_75" vType="vecType" speedFactor="0.98" vaporized=""/>
    <tripinfo id="72" depart="18120.00" departLane="224316521#3_0" departPos="5.10" departSpeed="0.00" departDelay="0.00" arrival="18968.00" arrivalLane="224316521#3_0" arrivalPos="102.03" arrivalSpeed="10.40" duration="848.00" routeLength="4635.93" waitingTime="307.00" waitingCount="14" stopTime="3.00" timeLoss="406.73" rerouteNo="1" devices="vehroute_72 tripinfo_72" vType="vecType" speedFactor="0.94" vaporized=""/>
    <tripinfo id="41" depart="18003.00" departLane="144489137#0_0" departPos="5.10" departSpeed="0.00" departDelay="3.00" arrival="18974.00" arrivalLane="144489137#0_0" arrivalPos="135.49" arrivalSpeed="10.36" duration="971.00" routeLength="5119.82" waitingTime="388.00" waitingCount="15" stopTime="3.00" timeLoss="492.69" rerouteNo="1" devices="vehroute_41 tripinfo_41" vType="vecType" speedFactor="0.96" vaporized=""/>
    <tripinfo id="86" depart="18120.00" departLane="-35977367#2_0" departPos="5.10" departSpeed="0.00" departDelay="0.00" arrival="18976.00" arrivalLane="-35977367#2_0" arrivalPos="431.73" arrivalSpeed="10.02" duration="856.00" routeLength="5770.12" waitingTime="245.00" waitingCount="7" stopTime="3.00" timeLoss="337.74" rerouteNo="2" devices="vehroute_86 tripinfo_86" vType="vecType" speedFactor="1.00" vaporized=""/>
    <tripinfo id="79" depart="18120.00" departLane="-24310636#2_0" departPos="5.10" departSpeed="0.00" departDelay="0.00" arrival="18979.00" arrivalLane="-24310636#2_1" arrivalPos="108.36" arrivalSpeed="11.90" duration="859.00" routeLength="6581.41" waitingTime="243.00" waitingCount="10" stopTime="4.00" timeLoss="363.86" rerouteNo="1" devices="vehroute_79 tripinfo_79" vType="vecType" speedFactor="1.09" vaporized=""/>
    <tripinfo id="89" depart="18126.00" departLane="31129765_0" departPos="5.10" departSpeed="0.00" departDelay="6.00" arrival="18986.00" arrivalLane="31129765_0" arrivalPos="639.51" arrivalSpeed="22.75" duration="860.00" routeLength="8224.01" waitingTime="224.00" waitingCount="9" stopTime="5.00" timeLoss="315.09" rerouteNo="2" devices="vehroute_89 tripinfo_89" vType="vecType" speedFactor="1.02" vaporized=""/>
    <tripinfo id="70" depart="18120.00" departLane="255330036#13_0" departPos="5.10" departSpeed="0.00" departDelay="0.00" arrival="18991.00" arrivalLane="255330036#13_0" arrivalPos="197.08" arrivalSpeed="10.55" duration="871.00" routeLength="7430.88" waitingTime="173.00" waitingCount="7" stopTime="3.00" timeLoss="270.55" rerouteNo="1" devices="vehroute_70 tripinfo_70" vType="vecType" speedFactor="1.02" vaporized=""/>
    <tripinfo id="50" depart="18060.00" departLane="254396707#6_0" departPos="5.10" departSpeed="0.00" departDelay="0.00" arrival="18992.00" arrivalLane="254396707#6_0" arrivalPos="139.12" arrivalSpeed="8.86" duration="932.00" routeLength="4531.25" waitingTime="358.00" waitingCount="14" stopTime="3.00" timeLoss="456.30" rerouteNo="1" devices="vehroute_50 tripinfo_50" vType="vecType" speedFactor="0.85" vaporized=""/>
    <tripinfo id="34" depart="18000.00" departLane="-133755930#1_0" departPos="5.10" departSpeed="0.00" departDelay="0.00" arrival="19004.00" arrivalLane="-133755930#1_1" arrivalPos="16.00" arrivalSpeed="10.84" duration="1004.00" routeLength="4779.15" waitingTime="465.00" waitingCount="16" stopTime="3.00" timeLoss="570.81" rerouteNo="1" devices="vehroute_34 tripinfo_34" vType="vecType" speedFactor="0.99" vaporized=""/>
    <tripinfo id="5" depart="18000.00" departLane="-23883760_0" departPos="5.10" departSpeed="0.00" departDelay="0.00" arrival="19024.00" arrivalLane="-23883760_0" arrivalPos="242.29" arrivalSpeed="8.18" duration="1024.00" routeLength="5984.65" waitingTime="286.00" waitingCount="8" stopTime="3.00" timeLoss="376.74" rerouteNo="1" devices="vehroute_5 tripinfo_5" vType="vecType" speedFactor="0.83" vaporized=""/>
    <tripinfo id="17" depart="18003.00" departLane="224384035#0_0" departPos="5.10" departSpeed="0.00" departDelay="3.00" arrival="19063.00" arrivalLane="224384035#0_0" arrivalPos="123.84" arrivalSpeed="9.88" duration="1060.00" routeLength="7142.89" waitingTime="256.00" waitingCount="15" stopTime="3.00" timeLoss="384.49" rerouteNo="1" devices="vehroute_17 tripinfo_17" vType="vecType" speedFactor="0.94" vaporized=""/>
    <tripinfo id="71" depart="18120.00" departLane="52432938#0_0" departPos="5.10" departSpeed="0.00" departDelay="0.00" arrival="19070.00" arrivalLane="52432938#0_1" arrivalPos="69.49" arrivalSpeed="9.88" duration="950.00" routeLength="10860.48" waitingTime="278.00" waitingCount="7" stopTime="3.00" timeLoss="362.42" rerouteNo="2" devices="vehroute_71 tripinfo_71" vType="vecType" speedFactor="0.97" vaporized=""/>
    <tripinfo id="7" depart="18000.00" departLane="224384035#0_0" departPos="5.10" departSpeed="0.00" departDelay="0.00" arrival="19075.00" arrivalLane="224384035#0_0" arrivalPos="123.84" arrivalSpeed="8.93" duration="1075.00" routeLength="6571.31" waitingTime="296.00" waitingCount="12" stopTime="3.00" timeLoss="412.55" rerouteNo="2" devices="vehroute_7 tripinfo_7" vType="vecType" speedFactor="0.89" vaporized=""/>
    <tripinfo id="11" depart="18003.00" departLane="225806031#0_0" departPos="5.10" departSpeed="0.00" departDelay="3.00" arrival="19076.00" arrivalLane="225806031#0_0" arrivalPos="142.16" arrivalSpeed="11.26" duration="1073.00" routeLength="6601.75" waitingTime="366.00" waitingCount="15" stopTime="3.00" timeLoss="496.15" rerouteNo="2" devices="vehroute_11 tripinfo_11" vType="vecType" speedFactor="1.03" vaporized=""/>
    <tripinfo id="83" depart="18120.00" departLane="31129765_0" departPos="5.10" departSpeed="0.00" departDelay="0.00" arrival="19085.00" arrivalLane="31129765_0" arrivalPos="639.51" arrivalSpeed="20.86" duration="965.00" routeLength="7329.42" waitingTime="352.00" waitingCount="15" stopTime="3.00" timeLoss="473.96" rerouteNo="1" devices="vehroute_83 tripinfo_83" vType="vecType" speedFactor="0.97" vaporized=""/>
    <tripinfo id="37" depart="18003.00" departLane="27398045#1_0" departPos="5.10" departSpeed="0.00" departDelay="3.00" arrival="19089.00" arrivalLane="27398045#1_0" arrivalPos="122.17" arrivalSpeed="12.54" duration="1086.00" routeLength="7150.11" waitingTime="396.00" waitingCount="15" stopTime="3.00" timeLoss="544.12" rerouteNo="2" devices="vehroute_37 tripinfo_37" vType="vecType" speedFactor="1.18" vaporized=""/>
    <tripinfo id="44" depart="18060.00" departLane="8915254_0" departPos="5.10" departSpeed="0.00" departDelay="0.00" arrival="19101.00" arrivalLane="8915254_0" arrivalPos="317.12" arrivalSpeed="22.63" duration="1041.00" routeLength="7777.74" waitingTime="317.00" waitingCount="12" stopTime="3.00" timeLoss="452.26" rerouteNo="1" devices="vehroute_44 tripinfo_44" vType="vecType" speedFactor="1.04" vaporized=""/>
    <tripinfo id="14" depart="18000.00" departLane="8916767#0_0" departPos="5.10" departSpeed="0.00" departDelay="0.00" arrival="19108.00" arrivalLane="8916767#0_0" arrivalPos="129.66" arrivalSpeed="10.48" duration="1108.00" routeLength="7452.94" waitingTime="303.00" waitingCount="14" stopTime="3.00" timeLoss="432.09" rerouteNo="1" devices="vehroute_14 tripinfo_14" vType="vecType" speedFactor="0.99" vaporized=""/>
    <tripinfo id="62" depart="18066.00" departLane="90077241_0" departPos="5.10" departSpeed="0.00" departDelay="6.00" arrival="19108.00" arrivalLane="90077241_0" arrivalPos="3225.35" arrivalSpeed="28.82" duration="1042.00" routeLength="13074.27" waitingTime="336.00" waitingCount="10" stopTime="3.00" timeLoss="432.45" rerouteNo="2" devices="vehroute_62 tripinfo_62" vType="vecType" speedFactor="1.02" vaporized=""/>
    <tripinfo id="52" depart="18060.00" departLane="30029172#0_0" departPos="5.10" departSpeed="0.00" departDelay="0.00" arrival="19125.00" arrivalLane="30029172#0_0" arrivalPos="147.16" arrivalSpeed="10.80" duration="1065.00" routeLength="8819.29" waitingTime="281.00" waitingCount="9" stopTime="3.00" timeLoss="392.65" rerouteNo="2" devices="vehroute_52 tripinfo_52" vType="vecType" speedFactor="1.02" vaporized=""/>
    <tripinfo id="66" depart="18060.00" departLane="-206662304#13_0" departPos="5.10" departSpeed="0.00" departDelay="0.00" arrival="19139.00" arrivalLane="-206662304#13_0" arrivalPos="290.52" arrivalSpeed="9.82" duration="1079.00" routeLength="6773.96" waitingTime="276.00" waitingCount="15" stopTime="3.00" timeLoss="406.95" rerouteNo="1" devices="vehroute_66 tripinfo_66" vType="vecType" speedFactor="0.91" vaporized=""/>
    <tripinfo id="57" depart="18060.00" departLane="111089307#0_0" departPos="5.10" departSpeed="0.00" departDelay="0.00" arrival="19151.00" arrivalLane="111089307#0_0" arrivalPos="135.96" arrivalSpeed="12.55" duration="1091.00" routeLength="8168.77" waitingTime="349.00" waitingCount="15" stopTime="3.00" timeLoss="496.38" rerouteNo="4" devices="vehroute_57 tripinfo_57" vType="vecType" speedFactor="1.14" vaporized=""/>
    <tripinfo id="58" depart="18063.00" departLane="90077241_0" departPos="5.10" departSpeed="0.00" departDelay="3.00" arrival="19153.00" arrivalLane="90077241_0" arrivalPos="3225.35" arrivalSpeed="28.97" duration="1090.00" routeLength="15253.99" waitingTime="247.00" waitingCount="8" stopTime="3.00" timeLoss="342.47" rerouteNo="2" devices="vehroute_58 tripinfo_58" vType="vecType" speedFactor="1.02" vaporized=""/>