<?xml version="1.0" encoding="UTF-8"?>

<!-- generated on 2022-12-16 09:55:46 by Eclipse SUMO sumo Version 1.14.1
<configuration xmlns:xsi="http://www.w3.org/2001/XMLSchema-instance" xsi:noNamespaceSchemaLocation="http://sumo.dlr.de/xsd/sumoConfiguration.xsd">

    <input>
        <net-file value="./strategia2_config/../san_francisco.net.xml"/>
        <route-files value="./strategia2_config/../san_francisco.rou.xml"/>
        <additional-files value="./strategia2_config/../san_francisco.poly.xml,./strategia2_config/../parking_capacity_100%25/off_parking_100%25.add.xml,./strategia2_config/../parking_capacity_100%25/on_parking_100%25.add.xml"/>
    </input>

    <output>
        <emission-output value="./strategia2_config/../output/strategia2/100%25/emissions.xml"/>
        <tripinfo-output value="./strategia2_config/../output/strategia2/100%25/tripinfo.xml"/>
        <vehroute-output value="./strategia2_config/../output/strategia2/100%25/vehroute.xml"/>
        <stop-output value="./strategia2_config/../output/strategia2/100%25/stops.xml"/>
        <collision-output value="./strategia2_config/../output/strategia2/100%25/collision.xml"/>
        <statistic-output value="./strategia2_config/../output/strategia2/100%25/statistic.xml"/>
    </output>

    <time>
        <step-length value="1"/>
    </time>

    <processing>
        <ignore-route-errors value="false"/>
        <time-to-teleport value="-1"/>
    </processing>

    <report>
        <verbose value="true"/>
        <xml-validation value="never"/>
    </report>

    <traci_server>
        <remote-port value="55652"/>
    </traci_server>

    <gui_only>
        <gui-settings-file value="./strategia2_config/../gui-settings.cfg"/>
        <start value="true"/>
    </gui_only>

</configuration>
-->

<tripinfos xmlns:xsi="http://www.w3.org/2001/XMLSchema-instance" xsi:noNamespaceSchemaLocation="http://sumo.dlr.de/xsd/tripinfo_file.xsd">
    <tripinfo id="30" depart="18000.00" departLane="-91181760#0_0" departPos="5.10" departSpeed="0.00" departDelay="0.00" arrival="18336.00" arrivalLane="-91181760#0_0" arrivalPos="79.70" arrivalSpeed="12.17" duration="336.00" routeLength="3660.42" waitingTime="5.00" waitingCount="2" stopTime="3.00" timeLoss="54.44" rerouteNo="1" devices="vehroute_30 tripinfo_30 emissions_30" vType="vecType" speedFactor="1.18" vaporized="">
        <emissions CO_abs="13818.030434" CO2_abs="1007906.885002" HC_abs="85.535184" PMx_abs="16.322862" NOx_abs="399.286829" fuel_abs="321476.745374" electricity_abs="0"/>
    </tripinfo>
    <tripinfo id="1" depart="18000.00" departLane="31129765_0" departPos="5.10" departSpeed="0.00" departDelay="0.00" arrival="18354.00" arrivalLane="31129765_0" arrivalPos="639.51" arrivalSpeed="20.60" duration="354.00" routeLength="4341.32" waitingTime="36.00" waitingCount="2" stopTime="3.00" timeLoss="82.64" rerouteNo="1" devices="vehroute_1 tripinfo_1 emissions_1" vType="vecType" speedFactor="0.94" vaporized="">
        <emissions CO_abs="21438.886528" CO2_abs="1213076.726037" HC_abs="125.420421" PMx_abs="22.407057" NOx_abs="483.200360" fuel_abs="386917.577290" electricity_abs="0"/>
    </tripinfo>
    <tripinfo id="45" depart="18060.00" departLane="31129765_0" departPos="5.10" departSpeed="0.00" departDelay="0.00" arrival="18367.00" arrivalLane="31129765_0" arrivalPos="639.51" arrivalSpeed="23.24" duration="307.00" routeLength="4234.28" waitingTime="40.00" waitingCount="1" stopTime="3.00" timeLoss="80.72" rerouteNo="1" devices="vehroute_45 tripinfo_45 emissions_45" vType="vecType" speedFactor="1.09" vaporized="">
        <emissions CO_abs="23005.213730" CO2_abs="1287705.586770" HC_abs="135.070107" PMx_abs="25.671096" NOx_abs="519.188405" fuel_abs="410719.459927" electricity_abs="0"/>
    </tripinfo>
    <tripinfo id="60" depart="18060.00" departLane="8916792_0" departPos="5.10" departSpeed="0.00" departDelay="0.00" arrival="18488.00" arrivalLane="8916792_0" arrivalPos="615.11" arrivalSpeed="11.81" duration="428.00" routeLength="3743.73" waitingTime="70.00" waitingCount="3" stopTime="3.00" timeLoss="114.76" rerouteNo="1" devices="vehroute_60 tripinfo_60 emissions_60" vType="vecType" speedFactor="1.08" vaporized="">
        <emissions CO_abs="22447.871178" CO2_abs="1033018.911613" HC_abs="125.608907" PMx_abs="16.516684" NOx_abs="408.663222" fuel_abs="329491.900103" electricity_abs="0"/>
    </tripinfo>
    <tripinfo id="74" depart="18120.00" departLane="144489137#0_0" departPos="5.10" departSpeed="0.00" departDelay="0.00" arrival="18540.00" arrivalLane="144489137#0_0" arrivalPos="135.49" arrivalSpeed="10.64" duration="420.00" routeLength="2784.43" waitingTime="115.00" waitingCount="5" stopTime="3.00" timeLoss="158.76" rerouteNo="2" devices="vehroute_74 tripinfo_74 emissions_74" vType="vecType" speedFactor="0.96" vaporized="">
        <emissions CO_abs="30472.448494" CO2_abs="1020232.041669" HC_abs="162.261039" PMx_abs="18.290037" NOx_abs="420.291076" fuel_abs="325416.126823" electricity_abs="0"/>
    </tripinfo>
    <tripinfo id="76" depart="18120.00" departLane="225806031#0_0" departPos="5.10" departSpeed="0.00" departDelay="0.00" arrival="18575.00" arrivalLane="225806031#0_0" arrivalPos="142.16" arrivalSpeed="10.77" duration="455.00" routeLength="3181.76" waitingTime="120.00" waitingCount="5" stopTime="3.00" timeLoss="178.05" rerouteNo="1" devices="vehroute_76 tripinfo_76 emissions_76" vType="vecType" speedFactor="1.03" vaporized="">
        <emissions CO_abs="34287.736917" CO2_abs="1213023.982084" HC_abs="184.094217" PMx_abs="22.109074" NOx_abs="500.969383" fuel_abs="386908.030504" electricity_abs="0"/>
    </tripinfo>
    <tripinfo id="21" depart="18000.00" departLane="27167762_0" departPos="5.10" departSpeed="0.00" departDelay="0.00" arrival="18621.00" arrivalLane="27167762_0" arrivalPos="139.02" arrivalSpeed="22.25" duration="621.00" routeLength="5420.07" waitingTime="170.00" waitingCount="8" stopTime="3.00" timeLoss="252.39" rerouteNo="2" devices="vehroute_21 tripinfo_21 emissions_21" vType="vecType" speedFactor="1.01" vaporized="">
        <emissions CO_abs="52014.934999" CO2_abs="1984718.816631" HC_abs="283.458556" PMx_abs="38.819586" NOx_abs="816.788588" fuel_abs="633044.950372" electricity_abs="0"/>
    </tripinfo>
    <tripinfo id="10" depart="18000.00" departLane="90077241_0" departPos="5.10" departSpeed="0.00" departDelay="0.00" arrival="18639.00" arrivalLane="90077241_0" arrivalPos="3225.35" arrivalSpeed="30.75" duration="639.00" routeLength="11810.95" waitingTime="98.00" waitingCount="4" stopTime="3.00" timeLoss="176.72" rerouteNo="2" devices="vehroute_10 tripinfo_10 emissions_10" vType="vecType" speedFactor="1.09" vaporized="">
        <emissions CO_abs="64402.960917" CO2_abs="3144852.658182" HC_abs="371.312181" PMx_abs="70.329434" NOx_abs="1233.130261" fuel_abs="1003068.313970" electricity_abs="0"/>
    </tripinfo>
    <tripinfo id="49" depart="18063.00" departLane="31129765_0" departPos="5.10" departSpeed="0.00" departDelay="3.00" arrival="18647.00" arrivalLane="31129765_0" arrivalPos="639.51" arrivalSpeed="18.99" duration="584.00" routeLength="12944.78" waitingTime="0.00" waitingCount="0" stopTime="3.00" timeLoss="34.24" rerouteNo="1" devices="vehroute_49 tripinfo_49 emissions_49" vType="vecType" speedFactor="0.85" vaporized="">
        <emissions CO_abs="23033.580991" CO2_abs="2471540.776618" HC_abs="160.279141" PMx_abs="44.989537" NOx_abs="898.021746" fuel_abs="788304.760134" electricity_abs="0"/>
    </tripinfo>
    <tripinfo id="93" depart="18120.00" departLane="-254758121#2_0" departPos="5.10" departSpeed="0.00" departDelay="0.00" arrival="18673.00" arrivalLane="-254758121#2_0" arrivalPos="99.35" arrivalSpeed="9.95" duration="553.00" routeLength="4284.51" waitingTime="73.00" waitingCount="3" stopTime="3.00" timeLoss="133.16" rerouteNo="2" devices="vehroute_93 tripinfo_93 emissions_93" vType="vecType" speedFactor="0.92" vaporized="">
        <emissions CO_abs="30060.144347" CO2_abs="1293914.260042" HC_abs="166.602749" PMx_abs="21.062076" NOx_abs="520.418865" fuel_abs="412707.467198" electricity_abs="0"/>
    </tripinfo>
    <tripinfo id="16" depart="18006.00" departLane="90077241_0" departPos="5.10" departSpeed="0.00" departDelay="6.00" arrival="18689.00" arrivalLane="90077241_0" arrivalPos="3225.35" arrivalSpeed="24.76" duration="683.00" routeLength="11625.26" waitingTime="99.00" waitingCount="3" stopTime="3.00" timeLoss="155.98" rerouteNo="1" devices="vehroute_16 tripinfo_16 emissions_16" vType="vecType" speedFactor="0.88" vaporized="">
        <emissions CO_abs="45141.731721" CO2_abs="2701842.624486" HC_abs="266.920033" PMx_abs="52.405994" NOx_abs="1031.826914" fuel_abs="861767.414232" electricity_abs="0"/>
    </tripinfo>
    <tripinfo id="28" depart="18009.00" departLane="90077241_0" departPos="5.10" departSpeed="0.00" departDelay="9.00" arrival="18692.00" arrivalLane="90077241_0" arrivalPos="3225.35" arrivalSpeed="32.59" duration="683.00" routeLength="12386.24" waitingTime="134.00" waitingCount="5" stopTime="3.00" timeLoss="213.13" rerouteNo="3" devices="vehroute_28 tripinfo_28 emissions_28" vType="vecType" speedFactor="1.13" vaporized="">
        <emissions CO_abs="75467.474817" CO2_abs="3442060.782507" HC_abs="429.188369" PMx_abs="78.816317" NOx_abs="1362.311948" fuel_abs="1097865.522257" electricity_abs="0"/>
    </tripinfo>
    <tripinfo id="36" depart="18009.00" departLane="123867455_0" departPos="5.10" departSpeed="0.00" departDelay="9.00" arrival="18704.00" arrivalLane="123867455_0" arrivalPos="904.85" arrivalSpeed="28.05" duration="695.00" routeLength="5901.75" waitingTime="228.00" waitingCount="8" stopTime="3.00" timeLoss="308.17" rerouteNo="2" devices="vehroute_36 tripinfo_36 emissions_36" vType="vecType" speedFactor="0.97" vaporized="">
        <emissions CO_abs="61407.001654" CO2_abs="2142521.399885" HC_abs="330.116712" PMx_abs="43.042773" NOx_abs="882.693687" fuel_abs="683380.106262" electricity_abs="0"/>
    </tripinfo>
    <tripinfo id="31" depart="18006.00" departLane="123867455_0" departPos="5.10" departSpeed="0.00" departDelay="6.00" arrival="18706.00" arrivalLane="123867455_0" arrivalPos="904.85" arrivalSpeed="32.59" duration="700.00" routeLength="7632.90" waitingTime="131.00" waitingCount="7" stopTime="3.00" timeLoss="232.59" rerouteNo="1" devices="vehroute_31 tripinfo_31 emissions_31" vType="vecType" speedFactor="1.15" vaporized="">
        <emissions CO_abs="50114.533627" CO2_abs="2342206.647893" HC_abs="282.932597" PMx_abs="44.735401" NOx_abs="947.818028" fuel_abs="747063.779783" electricity_abs="0"/>
    </tripinfo>
    <tripinfo id="13" depart="18003.00" departLane="90077241_0" departPos="5.10" departSpeed="0.00" departDelay="3.00" arrival="18747.00" arrivalLane="90077241_0" arrivalPos="3225.35" arrivalSpeed="32.25" duration="744.00" routeLength="12752.38" waitingTime="147.00" waitingCount="6" stopTime="3.00" timeLoss="220.81" rerouteNo="1" devices="vehroute_13 tripinfo_13 emissions_13" vType="vecType" speedFactor="1.12" vaporized="">
        <emissions CO_abs="75851.514150" CO2_abs="3484104.727987" HC_abs="431.351957" PMx_abs="77.885986" NOx_abs="1372.323827" fuel_abs="1111277.042195" electricity_abs="0"/>
    </tripinfo>
    <tripinfo id="63" depart="18063.00" departLane="-204967525_0" departPos="5.10" departSpeed="0.00" departDelay="3.00" arrival="18749.00" arrivalLane="-204967525_1" arrivalPos="146.26" arrivalSpeed="10.96" duration="686.00" routeLength="4830.14" waitingTime="156.00" waitingCount="8" stopTime="3.00" timeLoss="244.31" rerouteNo="1" devices="vehroute_63 tripinfo_63 emissions_63" vType="vecType" speedFactor="0.99" vaporized="">
        <emissions CO_abs="45052.715474" CO2_abs="1616506.616223" HC_abs="242.366148" PMx_abs="27.832329" NOx_abs="658.020358" fuel_abs="515604.878799" electricity_abs="0"/>
    </tripinfo>
    <tripinfo id="77" depart="18120.00" departLane="90077241_0" departPos="5.10" departSpeed="0.00" departDelay="0.00" arrival="18751.00" arrivalLane="90077241_0" arrivalPos="3225.35" arrivalSpeed="28.15" duration="631.00" routeLength="11810.95" waitingTime="52.00" waitingCount="3" stopTime="3.00" timeLoss="118.17" rerouteNo="2" devices="vehroute_77 tripinfo_77 emissions_77" vType="vecType" speedFactor="0.98" vaporized="">
        <emissions CO_abs="45113.606193" CO2_abs="2769528.251548" HC_abs="272.653634" PMx_abs="56.800052" NOx_abs="1056.785328" fuel_abs="883354.487176" electricity_abs="0"/>
    </tripinfo>
    <tripinfo id="15" depart="18000.00" departLane="-24310636#2_0" departPos="5.10" departSpeed="0.00" departDelay="0.00" arrival="18753.00" arrivalLane="-24310636#2_1" arrivalPos="108.36" arrivalSpeed="9.74" duration="753.00" routeLength="6010.81" waitingTime="139.00" waitingCount="9" stopTime="4.00" timeLoss="228.92" rerouteNo="1" devices="vehroute_15 tripinfo_15 emissions_15" vType="vecType" speedFactor="0.93" vaporized="">
        <emissions CO_abs="47609.404272" CO2_abs="1893221.999466" HC_abs="260.248888" PMx_abs="33.130640" NOx_abs="767.040168" fuel_abs="603863.200873" electricity_abs="0"/>
    </tripinfo>
    <tripinfo id="39" depart="18006.00" departLane="31129765_0" departPos="5.10" departSpeed="0.00" departDelay="6.00" arrival="18758.00" arrivalLane="31129765_0" arrivalPos="639.51" arrivalSpeed="19.93" duration="752.00" routeLength="6533.65" waitingTime="222.00" waitingCount="8" stopTime="3.00" timeLoss="304.87" rerouteNo="3" devices="vehroute_39 tripinfo_39 emissions_39" vType="vecType" speedFactor="0.90" vaporized="">
        <emissions CO_abs="60780.235032" CO2_abs="2204884.024092" HC_abs="327.374781" PMx_abs="42.379839" NOx_abs="898.628872" fuel_abs="703271.411598" electricity_abs="0"/>
    </tripinfo>
    <tripinfo id="114" depart="18240.00" departLane="-254758120#3_0" departPos="5.10" departSpeed="0.00" departDelay="0.00" arrival="18769.00" arrivalLane="-254758120#3_0" arrivalPos="147.41" arrivalSpeed="12.65" duration="529.00" routeLength="3346.72" waitingTime="203.00" waitingCount="9" stopTime="3.00" timeLoss="271.10" rerouteNo="2" devices="vehroute_114 tripinfo_114 emissions_114" vType="vecType" speedFactor="1.18" vaporized="">
        <emissions CO_abs="46868.994156" CO2_abs="1429776.766109" HC_abs="245.626651" PMx_abs="27.409806" NOx_abs="595.833192" fuel_abs="456046.538702" electricity_abs="0"/>
    </tripinfo>
    <tripinfo id="33" depart="18000.00" departLane="144489137#0_0" departPos="5.10" departSpeed="0.00" departDelay="0.00" arrival="18781.00" arrivalLane="144489137#0_0" arrivalPos="135.49" arrivalSpeed="12.69" duration="781.00" routeLength="3872.00" waitingTime="382.00" waitingCount="14" stopTime="3.00" timeLoss="484.74" rerouteNo="1" devices="vehroute_33 tripinfo_33 emissions_33" vType="vecType" speedFactor="1.17" vaporized="">
        <emissions CO_abs="82430.365483" CO2_abs="2161185.073629" HC_abs="424.830653" PMx_abs="44.403991" NOx_abs="922.755058" fuel_abs="689342.871934" electricity_abs="0"/>
    </tripinfo>
    <tripinfo id="82" depart="18123.00" departLane="-133781749_0" departPos="5.10" departSpeed="0.00" departDelay="3.00" arrival="18783.00" arrivalLane="-133781749_0" arrivalPos="138.68" arrivalSpeed="10.71" duration="660.00" routeLength="5499.56" waitingTime="119.00" waitingCount="9" stopTime="3.00" timeLoss="226.96" rerouteNo="1" devices="vehroute_82 tripinfo_82 emissions_82" vType="vecType" speedFactor="1.02" vaporized="">
        <emissions CO_abs="44672.667149" CO2_abs="1823503.609714" HC_abs="245.659130" PMx_abs="32.977675" NOx_abs="744.649282" fuel_abs="581623.997398" electricity_abs="0"/>
    </tripinfo>
    <tripinfo id="0" depart="18000.00" departLane="84823308_0" departPos="5.10" departSpeed="0.00" departDelay="0.00" arrival="18794.00" arrivalLane="84823308_0" arrivalPos="275.63" arrivalSpeed="11.73" duration="794.00" routeLength="5732.03" waitingTime="219.00" waitingCount="9" stopTime="3.00" timeLoss="307.21" rerouteNo="2" devices="vehroute_0 tripinfo_0 emissions_0" vType="vecType" speedFactor="1.06" vaporized="">
        <emissions CO_abs="56732.402922" CO2_abs="2011707.264578" HC_abs="304.523956" PMx_abs="35.888241" NOx_abs="823.871757" fuel_abs="641658.280826" electricity_abs="0"/>
    </tripinfo>
    <tripinfo id="40" depart="18000.00" departLane="-206679802#4_0" departPos="5.10" departSpeed="0.00" departDelay="0.00" arrival="18827.00" arrivalLane="-206679802#4_0" arrivalPos="292.11" arrivalSpeed="10.58" duration="827.00" routeLength="6024.23" waitingTime="209.00" waitingCount="7" stopTime="3.00" timeLoss="302.63" rerouteNo="2" devices="vehroute_40 tripinfo_40 emissions_40" vType="vecType" speedFactor="1.03" vaporized="">
        <emissions CO_abs="57572.521748" CO2_abs="2099416.552173" HC_abs="310.662527" PMx_abs="37.340512" NOx_abs="860.640727" fuel_abs="669633.201165" electricity_abs="0"/>
    </tripinfo>
    <tripinfo id="132" depart="18300.00" departLane="142972028#1_0" departPos="5.10" departSpeed="0.00" departDelay="0.00" arrival="18842.00" arrivalLane="142972028#1_0" arrivalPos="161.20" arrivalSpeed="13.61" duration="542.00" routeLength="5496.80" waitingTime="94.00" waitingCount="6" stopTime="3.00" timeLoss="185.82" rerouteNo="2" devices="vehroute_132 tripinfo_132 emissions_132" vType="vecType" speedFactor="1.23" vaporized="">
        <emissions CO_abs="36028.634015" CO2_abs="1730861.467088" HC_abs="203.242251" PMx_abs="31.750230" NOx_abs="701.997225" fuel_abs="552070.701973" electricity_abs="0"/>
    </tripinfo>
    <tripinfo id="84" depart="18123.00" departLane="90077241_0" departPos="5.10" departSpeed="0.00" departDelay="3.00" arrival="18850.00" arrivalLane="90077241_0" arrivalPos="3225.35" arrivalSpeed="32.19" duration="727.00" routeLength="12280.95" waitingTime="179.00" waitingCount="6" stopTime="3.00" timeLoss="247.73" rerouteNo="1" devices="vehroute_84 tripinfo_84 emissions_84" vType="vecType" speedFactor="1.15" vaporized="">
        <emissions CO_abs="82723.084377" CO2_abs="3499977.153562" HC_abs="463.335265" PMx_abs="80.590234" NOx_abs="1386.993928" fuel_abs="1116341.617888" electricity_abs="0"/>
    </tripinfo>
    <tripinfo id="47" depart="18060.00" departLane="90077241_0" departPos="5.10" departSpeed="0.00" departDelay="0.00" arrival="18868.00" arrivalLane="90077241_0" arrivalPos="3225.35" arrivalSpeed="26.13" duration="808.00" routeLength="12217.48" waitingTime="136.00" waitingCount="5" stopTime="3.00" timeLoss="205.24" rerouteNo="2" devices="vehroute_47 tripinfo_47 emissions_47" vType="vecType" speedFactor="0.90" vaporized="">
        <emissions CO_abs="55868.127333" CO2_abs="2988090.405303" HC_abs="324.499813" PMx_abs="58.350092" NOx_abs="1152.787116" fuel_abs="953071.016534" electricity_abs="0"/>
    </tripinfo>
    <tripinfo id="64" depart="18060.00" departLane="28319343#2_0" departPos="5.10" departSpeed="0.00" departDelay="0.00" arrival="18872.00" arrivalLane="28319343#2_0" arrivalPos="90.58" arrivalSpeed="10.42" duration="812.00" routeLength="9974.14" waitingTime="206.00" waitingCount="9" stopTime="3.00" timeLoss="282.26" rerouteNo="2" devices="vehroute_64 tripinfo_64 emissions_64" vType="vecType" speedFactor="0.94" vaporized="">
        <emissions CO_abs="64646.370740" CO2_abs="2747498.361620" HC_abs="358.831452" PMx_abs="54.687236" NOx_abs="1083.303412" fuel_abs="876338.762279" electricity_abs="0"/>
    </tripinfo>
    <tripinfo id="9" depart="18000.00" departLane="23959829#0_0" departPos="5.10" departSpeed="0.00" departDelay="0.00" arrival="18877.00" arrivalLane="23959829#0_0" arrivalPos="45.86" arrivalSpeed="8.88" duration="877.00" routeLength="6745.88" waitingTime="132.00" waitingCount="7" stopTime="3.00" timeLoss="234.63" rerouteNo="2" devices="vehroute_9 tripinfo_9 emissions_9" vType="vecType" speedFactor="0.86" vaporized="">
        <emissions CO_abs="51887.501413" CO2_abs="2101697.857622" HC_abs="284.385110" PMx_abs="34.878304" NOx_abs="844.187430" fuel_abs="670359.983077" electricity_abs="0"/>
    </tripinfo>
    <tripinfo id="56" depart="18066.00" departLane="31129765_0" departPos="5.10" departSpeed="0.00" departDelay="6.00" arrival="18877.00" arrivalLane="31129765_0" arrivalPos="639.51" arrivalSpeed="18.96" duration="811.00" routeLength="6840.91" waitingTime="247.00" waitingCount="9" stopTime="3.00" timeLoss="332.31" rerouteNo="2" devices="vehroute_56 tripinfo_56 emissions_56" vType="vecType" speedFactor="0.90" vaporized="">
        <emissions CO_abs="66200.793083" CO2_abs="2337161.708184" HC_abs="355.103757" PMx_abs="44.877923" NOx_abs="954.115212" fuel_abs="745463.789722" electricity_abs="0"/>
    </tripinfo>
    <tripinfo id="73" depart="18120.00" departLane="-204967525_0" departPos="5.10" departSpeed="0.00" departDelay="0.00" arrival="18878.00" arrivalLane="-204967525_1" arrivalPos="146.26" arrivalSpeed="11.14" duration="758.00" routeLength="5090.57" waitingTime="231.00" waitingCount="8" stopTime="3.00" timeLoss="323.14" rerouteNo="1" devices="vehroute_73 tripinfo_73 emissions_73" vType="vecType" speedFactor="1.06" vaporized="">
        <emissions CO_abs="60128.510978" CO2_abs="2026660.060032" HC_abs="320.764249" PMx_abs="37.854654" NOx_abs="843.292826" fuel_abs="646427.433453" electricity_abs="0"/>
    </tripinfo>
    <tripinfo id="12" depart="18000.00" departLane="-23883761_0" departPos="5.10" departSpeed="0.00" departDelay="0.00" arrival="18881.00" arrivalLane="-23883761_0" arrivalPos="197.88" arrivalSpeed="11.51" duration="881.00" routeLength="5849.00" waitingTime="275.00" waitingCount="11" stopTime="3.00" timeLoss="378.23" rerouteNo="2" devices="vehroute_12 tripinfo_12 emissions_12" vType="vecType" speedFactor="1.05" vaporized="">
        <emissions CO_abs="69783.588577" CO2_abs="2287881.504311" HC_abs="370.557613" PMx_abs="42.246470" NOx_abs="947.695144" fuel_abs="729748.993942" electricity_abs="0"/>
    </tripinfo>
    <tripinfo id="104" depart="18180.00" departLane="8915254_0" departPos="5.10" departSpeed="0.00" departDelay="0.00" arrival="18882.00" arrivalLane="8915254_0" arrivalPos="317.12" arrivalSpeed="19.36" duration="702.00" routeLength="5663.72" waitingTime="151.00" waitingCount="5" stopTime="3.00" timeLoss="226.74" rerouteNo="2" devices="vehroute_104 tripinfo_104 emissions_104" vType="vecType" speedFactor="0.89" vaporized="">
        <emissions CO_abs="47288.770294" CO2_abs="1849977.896625" HC_abs="257.354590" PMx_abs="32.712668" NOx_abs="749.491866" fuel_abs="590070.152415" electricity_abs="0"/>
    </tripinfo>
    <tripinfo id="85" depart="18126.00" departLane="90077241_0" departPos="5.10" departSpeed="0.00" departDelay="6.00" arrival="18887.00" arrivalLane="90077241_0" arrivalPos="3225.35" arrivalSpeed="27.51" duration="761.00" routeLength="11984.76" waitingTime="164.00" waitingCount="6" stopTime="3.00" timeLoss="228.48" rerouteNo="1" devices="vehroute_85 tripinfo_85 emissions_85" vType="vecType" speedFactor="0.98" vaporized="">
        <emissions CO_abs="63235.988308" CO2_abs="3068146.259982" HC_abs="361.490905" PMx_abs="63.593993" NOx_abs="1188.346772" fuel_abs="978606.654992" electricity_abs="0"/>
    </tripinfo>
    <tripinfo id="27" depart="18000.00" departLane="-8916048_0" departPos="5.10" departSpeed="0.00" departDelay="0.00" arrival="18888.00" arrivalLane="-8916048_0" arrivalPos="126.72" arrivalSpeed="9.94" duration="888.00" routeLength="6742.86" waitingTime="198.00" waitingCount="8" stopTime="3.00" timeLoss="307.57" rerouteNo="1" devices="vehroute_27 tripinfo_27 emissions_27" vType="vecType" speedFactor="0.95" vaporized="">
        <emissions CO_abs="60674.803359" CO2_abs="2267194.777446" HC_abs="328.642588" PMx_abs="40.252344" NOx_abs="925.024574" fuel_abs="723147.321709" electricity_abs="0"/>
    </tripinfo>
    <tripinfo id="117" depart="18240.00" departLane="27167762_0" departPos="5.10" departSpeed="0.00" departDelay="0.00" arrival="18889.00" arrivalLane="27167762_0" arrivalPos="139.02" arrivalSpeed="23.53" duration="649.00" routeLength="5016.55" waitingTime="241.00" waitingCount="8" stopTime="3.00" timeLoss="333.37" rerouteNo="1" devices="vehroute_117 tripinfo_117 emissions_117" vType="vecType" speedFactor="1.07" vaporized="">
        <emissions CO_abs="64151.102826" CO2_abs="2132065.563232" HC_abs="342.276142" PMx_abs="43.994052" NOx_abs="891.857648" fuel_abs="680045.225464" electricity_abs="0"/>
    </tripinfo>
    <tripinfo id="29" depart="18000.00" departLane="-35977367#2_0" departPos="5.10" departSpeed="0.00" departDelay="0.00" arrival="18894.00" arrivalLane="-35977367#2_0" arrivalPos="431.73" arrivalSpeed="9.29" duration="894.00" routeLength="6070.29" waitingTime="216.00" waitingCount="7" stopTime="3.00" timeLoss="308.00" rerouteNo="2" devices="vehroute_29 tripinfo_29 emissions_29" vType="vecType" speedFactor="0.93" vaporized="">
        <emissions CO_abs="60664.980602" CO2_abs="2116373.521487" HC_abs="324.962748" PMx_abs="36.798305" NOx_abs="865.942053" fuel_abs="675044.112639" electricity_abs="0"/>
    </tripinfo>
    <tripinfo id="79" depart="18120.00" departLane="-24310636#2_0" departPos="5.10" departSpeed="0.00" departDelay="0.00" arrival="18894.00" arrivalLane="-24310636#2_1" arrivalPos="108.36" arrivalSpeed="11.13" duration="774.00" routeLength="6581.41" waitingTime="154.00" waitingCount="8" stopTime="3.00" timeLoss="279.86" rerouteNo="1" devices="vehroute_79 tripinfo_79 emissions_79" vType="vecType" speedFactor="1.09" vaporized="">
        <emissions CO_abs="50830.129505" CO2_abs="2123820.246836" HC_abs="280.066333" PMx_abs="37.891309" NOx_abs="864.012598" fuel_abs="677412.582644" electricity_abs="0"/>
    </tripinfo>
    <tripinfo id="42" depart="18009.00" departLane="31129765_0" departPos="5.10" departSpeed="0.00" departDelay="9.00" arrival="18898.00" arrivalLane="31129765_0" arrivalPos="639.51" arrivalSpeed="23.45" duration="889.00" routeLength="7763.38" waitingTime="302.00" waitingCount="12" stopTime="3.00" timeLoss="417.73" rerouteNo="1" devices="vehroute_42 tripinfo_42 emissions_42" vType="vecType" speedFactor="1.09" vaporized="">
        <emissions CO_abs="82107.039380" CO2_abs="2902185.600326" HC_abs="442.030705" PMx_abs="59.133536" NOx_abs="1202.761019" fuel_abs="925681.256424" electricity_abs="0"/>
    </tripinfo>
    <tripinfo id="119" depart="18240.00" departLane="8916767#0_0" departPos="5.10" departSpeed="0.00" departDelay="0.00" arrival="18912.00" arrivalLane="8916767#0_0" arrivalPos="129.66" arrivalSpeed="11.63" duration="672.00" routeLength="5013.92" waitingTime="165.00" waitingCount="9" stopTime="3.00" timeLoss="262.26" rerouteNo="1" devices="vehroute_119 tripinfo_119 emissions_119" vType="vecType" speedFactor="1.10" vaporized="">
        <emissions CO_abs="48325.974882" CO2_abs="1807351.287583" HC_abs="261.472324" PMx_abs="32.495130" NOx_abs="741.513492" fuel_abs="576474.501351" electricity_abs="0"/>
    </tripinfo>
    <tripinfo id="99" depart="18180.00" departLane="-27029204_0" departPos="5.10" departSpeed="0.00" departDelay="0.00" arrival="18918.00" arrivalLane="-27029204_0" arrivalPos="195.60" arrivalSpeed="11.62" duration="738.00" routeLength="5700.35" waitingTime="215.00" waitingCount="11" stopTime="3.00" timeLoss="320.87" rerouteNo="1" devices="vehroute_99 tripinfo_99 emissions_99" vType="vecType" speedFactor="1.10" vaporized="">
        <emissions CO_abs="60561.372914" CO2_abs="2180148.217696" HC_abs="326.096755" PMx_abs="41.769779" NOx_abs="902.533029" fuel_abs="695381.282831" electricity_abs="0"/>
    </tripinfo>
    <tripinfo id="105" depart="18183.00" departLane="8915254_0" departPos="5.10" departSpeed="0.00" departDelay="3.00" arrival="18920.00" arrivalLane="8915254_0" arrivalPos="317.12" arrivalSpeed="23.55" duration="737.00" routeLength="5890.78" waitingTime="214.00" waitingCount="11" stopTime="3.00" timeLoss="321.71" rerouteNo="2" devices="vehroute_105 tripinfo_105 emissions_105" vType="vecType" speedFactor="1.07" vaporized="">
        <emissions CO_abs="60827.126554" CO2_abs="2214194.417455" HC_abs="328.601334" PMx_abs="43.055848" NOx_abs="918.056797" fuel_abs="706239.773169" electricity_abs="0"/>
    </tripinfo>
    <tripinfo id="20" depart="18000.00" departLane="123867455_0" departPos="5.10" departSpeed="0.00" departDelay="0.00" arrival="18924.00" arrivalLane="123867455_0" arrivalPos="904.85" arrivalSpeed="29.13" duration="924.00" routeLength="7628.28" waitingTime="288.00" waitingCount="11" stopTime="3.00" timeLoss="403.11" rerouteNo="2" devices="vehroute_20 tripinfo_20 emissions_20" vType="vecType" speedFactor="1.02" vaporized="">
        <emissions CO_abs="80348.812983" CO2_abs="2831470.333359" HC_abs="432.812932" PMx_abs="56.077205" NOx_abs="1166.848860" fuel_abs="903127.783467" electricity_abs="0"/>
    </tripinfo>
    <tripinfo id="127" depart="18240.00" departLane="-204967525_0" departPos="5.10" departSpeed="0.00" departDelay="0.00" arrival="18929.00" arrivalLane="-204967525_1" arrivalPos="146.26" arrivalSpeed="10.87" duration="689.00" routeLength="5247.72" waitingTime="122.00" waitingCount="9" stopTime="3.00" timeLoss="220.27" rerouteNo="1" devices="vehroute_127 tripinfo_127 emissions_127" vType="vecType" speedFactor="1.01" vaporized="">
        <emissions CO_abs="42415.344666" CO2_abs="1682484.667976" HC_abs="231.879729" PMx_abs="28.273185" NOx_abs="679.570349" fuel_abs="536647.414014" electricity_abs="0"/>
    </tripinfo>
    <tripinfo id="135" depart="18360.00" departLane="90077241_0" departPos="5.10" departSpeed="0.00" departDelay="0.00" arrival="18930.00" arrivalLane="90077241_0" arrivalPos="3225.35" arrivalSpeed="28.59" duration="570.00" routeLength="11126.88" waitingTime="85.00" waitingCount="4" stopTime="3.00" timeLoss="133.34" rerouteNo="1" devices="vehroute_135 tripinfo_135 emissions_135" vType="vecType" speedFactor="1.02" vaporized="">
        <emissions CO_abs="49574.805754" CO2_abs="2703071.015724" HC_abs="292.392616" PMx_abs="58.317260" NOx_abs="1037.344337" fuel_abs="862158.982281" electricity_abs="0"/>
    </tripinfo>