<?xml version="1.0" encoding="UTF-8"?>

<!-- generated on 2022-12-20 21:44:20 by Eclipse SUMO sumo Version 1.14.1
<configuration xmlns:xsi="http://www.w3.org/2001/XMLSchema-instance" xsi:noNamespaceSchemaLocation="http://sumo.dlr.de/xsd/sumoConfiguration.xsd">

    <input>
        <net-file value="./strategia2_config/../san_francisco.net.xml"/>
        <route-files value="./strategia2_config/../san_francisco.rou.xml"/>
        <additional-files value="./strategia2_config/../san_francisco.poly.xml,./strategia2_config/../parking_capacity_100%25/off_parking_100%25.add.xml,./strategia2_config/../parking_capacity_100%25/on_parking_100%25.add.xml"/>
    </input>

    <output>
        <emission-output value="./strategia2_config/../output/strategia2/100%25/emissions.xml"/>
        <tripinfo-output value="./strategia2_config/../output/strategia2/100%25/tripinfo.xml"/>
        <vehroute-output value="./strategia2_config/../output/strategia2/100%25/vehroute.xml"/>
        <stop-output value="./strategia2_config/../output/strategia2/100%25/stops.xml"/>
        <collision-output value="./strategia2_config/../output/strategia2/100%25/collision.xml"/>
        <statistic-output value="./strategia2_config/../output/strategia2/100%25/statistic.xml"/>
    </output>

    <time>
        <step-length value="1"/>
    </time>

    <processing>
        <ignore-route-errors value="false"/>
        <time-to-teleport value="-1"/>
    </processing>

    <report>
        <verbose value="true"/>
        <xml-validation value="never"/>
    </report>

    <traci_server>
        <remote-port value="59383"/>
    </traci_server>

    <gui_only>
        <gui-settings-file value="./strategia2_config/../gui-settings.cfg"/>
        <start value="true"/>
    </gui_only>

</configuration>
-->

<tripinfos xmlns:xsi="http://www.w3.org/2001/XMLSchema-instance" xsi:noNamespaceSchemaLocation="http://sumo.dlr.de/xsd/tripinfo_file.xsd">
    <tripinfo id="386" depart="21360.00" departLane="8916792_0" departPos="5.10" departSpeed="0.00" departDelay="0.00" arrival="22385.00" arrivalLane="8916792_0" arrivalPos="615.11" arrivalSpeed="11.54" duration="1025.00" routeLength="6555.08" waitingTime="363.00" waitingCount="12" stopTime="3.00" timeLoss="468.31" rerouteNo="1" devices="vehroute_386 tripinfo_386 emissions_386" vType="vecType" speedFactor="1.06" vaporized="">
        <emissions CO_abs="83451.120063" CO2_abs="2573724.493648" HC_abs="439.389082" PMx_abs="47.946683" NOx_abs="1067.776017" fuel_abs="820925.000547" electricity_abs="0"/>
    </tripinfo>
    <tripinfo id="470" depart="21600.00" departLane="225806031#0_0" departPos="5.10" departSpeed="0.00" departDelay="0.00" arrival="22589.00" arrivalLane="225806031#0_0" arrivalPos="142.16" arrivalSpeed="10.06" duration="989.00" routeLength="5415.95" waitingTime="362.00" waitingCount="15" stopTime="3.00" timeLoss="471.50" rerouteNo="1" devices="vehroute_470 tripinfo_470 emissions_470" vType="vecType" speedFactor="0.94" vaporized="">
        <emissions CO_abs="85048.782110" CO2_abs="2381237.947472" HC_abs="442.247907" PMx_abs="44.898599" NOx_abs="996.285991" fuel_abs="759532.727975" electricity_abs="0"/>
    </tripinfo>
</tripinfos>
