<?xml version="1.0" encoding="UTF-8"?>

<!-- generated on 2022-12-12 10:38:09 by Eclipse SUMO sumo Version 1.14.1
<configuration xmlns:xsi="http://www.w3.org/2001/XMLSchema-instance" xsi:noNamespaceSchemaLocation="http://sumo.dlr.de/xsd/sumoConfiguration.xsd">

    <input>
        <net-file value="./strategia2_config/../san_francisco.net.xml"/>
        <route-files value="./strategia2_config/../san_francisco.rou.xml"/>
        <additional-files value="./strategia2_config/../san_francisco.poly.xml,./strategia2_config/../parking_capacity_100%25/off_parking_100%25.add.xml,./strategia2_config/../parking_capacity_100%25/on_parking_100%25.add.xml"/>
    </input>

    <output>
        <emission-output value="./strategia2_config/../output/strategia2/100%25/emission.xml"/>
        <summary-output value="./strategia2_config/../output/strategia2/100%25/summary.xml"/>
        <tripinfo-output value="./strategia2_config/../output/strategia2/100%25/tripinfo.xml"/>
        <vehroute-output value="./strategia2_config/../output/strategia2/100%25/vehroute.xml"/>
        <stop-output value="./strategia2_config/../output/strategia2/100%25/stops.xml"/>
        <collision-output value="./strategia2_config/../output/strategia2/100%25/collision.xml"/>
        <statistic-output value="./strategia2_config/../output/strategia2/100%25/statistic.xml"/>
    </output>

    <time>
        <step-length value="1"/>
    </time>

    <processing>
        <ignore-route-errors value="false"/>
        <time-to-teleport value="-1"/>
    </processing>

    <report>
        <verbose value="true"/>
        <xml-validation value="never"/>
    </report>

    <traci_server>
        <remote-port value="52099"/>
    </traci_server>

    <gui_only>
        <gui-settings-file value="./strategia2_config/../gui-settings.cfg"/>
        <start value="true"/>
    </gui_only>

</configuration>
-->

<tripinfos xmlns:xsi="http://www.w3.org/2001/XMLSchema-instance" xsi:noNamespaceSchemaLocation="http://sumo.dlr.de/xsd/tripinfo_file.xsd">
    <tripinfo id="30" depart="18000.00" departLane="-91181760#0_0" departPos="5.10" departSpeed="0.00" departDelay="0.00" arrival="18343.00" arrivalLane="-91181760#0_0" arrivalPos="79.70" arrivalSpeed="12.74" duration="343.00" routeLength="3660.42" waitingTime="1.00" waitingCount="1" stopTime="20.00" timeLoss="44.51" rerouteNo="1" devices="vehroute_30 tripinfo_30 emissions_30" vType="vecType" speedFactor="1.18" vaporized="">
        <emissions CO_abs="12270.507915" CO2_abs="952333.848264" HC_abs="77.428320" PMx_abs="15.347912" NOx_abs="377.052864" fuel_abs="303751.035957" electricity_abs="0"/>
    </tripinfo>
    <tripinfo id="1" depart="18000.00" departLane="31129765_0" departPos="5.10" departSpeed="0.00" departDelay="0.00" arrival="18353.00" arrivalLane="31129765_0" arrivalPos="639.51" arrivalSpeed="19.71" duration="353.00" routeLength="4341.32" waitingTime="21.00" waitingCount="2" stopTime="20.00" timeLoss="65.03" rerouteNo="1" devices="vehroute_1 tripinfo_1 emissions_1" vType="vecType" speedFactor="0.94" vaporized="">
        <emissions CO_abs="18681.590895" CO2_abs="1157015.829935" HC_abs="111.418187" PMx_abs="21.159755" NOx_abs="458.352590" fuel_abs="369035.813721" electricity_abs="0"/>
    </tripinfo>
    <tripinfo id="45" depart="18060.00" departLane="31129765_0" departPos="5.10" departSpeed="0.00" departDelay="0.00" arrival="18382.00" arrivalLane="31129765_0" arrivalPos="639.51" arrivalSpeed="24.24" duration="322.00" routeLength="4234.28" waitingTime="40.00" waitingCount="1" stopTime="20.00" timeLoss="78.84" rerouteNo="1" devices="vehroute_45 tripinfo_45 emissions_45" vType="vecType" speedFactor="1.09" vaporized="">
        <emissions CO_abs="22954.226873" CO2_abs="1282667.170998" HC_abs="134.679392" PMx_abs="25.702337" NOx_abs="517.100919" fuel_abs="409112.397322" electricity_abs="0"/>
    </tripinfo>
    <tripinfo id="60" depart="18060.00" departLane="8916792_0" departPos="5.10" departSpeed="0.00" departDelay="0.00" arrival="18488.00" arrivalLane="8916792_0" arrivalPos="615.11" arrivalSpeed="11.00" duration="428.00" routeLength="3743.73" waitingTime="57.00" waitingCount="3" stopTime="20.00" timeLoss="98.24" rerouteNo="1" devices="vehroute_60 tripinfo_60 emissions_60" vType="vecType" speedFactor="1.08" vaporized="">
        <emissions CO_abs="19506.530067" CO2_abs="969155.264884" HC_abs="110.748337" PMx_abs="14.954763" NOx_abs="379.624937" fuel_abs="309121.586926" electricity_abs="0"/>
    </tripinfo>
    <tripinfo id="76" depart="18120.00" departLane="225806031#0_0" departPos="5.10" departSpeed="0.00" departDelay="0.00" arrival="18576.00" arrivalLane="225806031#0_0" arrivalPos="142.16" arrivalSpeed="11.01" duration="456.00" routeLength="3181.76" waitingTime="107.00" waitingCount="4" stopTime="20.00" timeLoss="161.58" rerouteNo="1" devices="vehroute_76 tripinfo_76 emissions_76" vType="vecType" speedFactor="1.03" vaporized="">
        <emissions CO_abs="30937.858759" CO2_abs="1137374.768793" HC_abs="167.108212" PMx_abs="20.046232" NOx_abs="464.903294" fuel_abs="362778.903505" electricity_abs="0"/>
    </tripinfo>
    <tripinfo id="74" depart="18120.00" departLane="144489137#0_0" departPos="5.10" departSpeed="0.00" departDelay="0.00" arrival="18630.00" arrivalLane="144489137#0_0" arrivalPos="135.49" arrivalSpeed="9.92" duration="510.00" routeLength="2784.43" waitingTime="180.00" waitingCount="6" stopTime="20.00" timeLoss="231.88" rerouteNo="2" devices="vehroute_74 tripinfo_74 emissions_74" vType="vecType" speedFactor="0.96" vaporized="">
        <emissions CO_abs="42708.441956" CO2_abs="1233409.915840" HC_abs="223.000793" PMx_abs="23.452031" NOx_abs="517.072112" fuel_abs="393414.136663" electricity_abs="0"/>
    </tripinfo>
    <tripinfo id="10" depart="18000.00" departLane="90077241_0" departPos="5.10" departSpeed="0.00" departDelay="0.00" arrival="18640.00" arrivalLane="90077241_0" arrivalPos="3225.35" arrivalSpeed="31.60" duration="640.00" routeLength="11810.95" waitingTime="92.00" waitingCount="3" stopTime="20.00" timeLoss="161.31" rerouteNo="2" devices="vehroute_10 tripinfo_10 emissions_10" vType="vecType" speedFactor="1.09" vaporized="">
        <emissions CO_abs="61818.366585" CO2_abs="3101754.142352" HC_abs="358.656113" PMx_abs="69.154466" NOx_abs="1207.273164" fuel_abs="989321.544059" electricity_abs="0"/>
    </tripinfo>
    <tripinfo id="49" depart="18063.00" departLane="31129765_0" departPos="5.10" departSpeed="0.00" departDelay="3.00" arrival="18663.00" arrivalLane="31129765_0" arrivalPos="639.51" arrivalSpeed="18.69" duration="600.00" routeLength="12944.78" waitingTime="0.00" waitingCount="0" stopTime="20.00" timeLoss="34.16" rerouteNo="1" devices="vehroute_49 tripinfo_49 emissions_49" vType="vecType" speedFactor="0.85" vaporized="">
        <emissions CO_abs="23958.301225" CO2_abs="2477303.657421" HC_abs="165.009317" PMx_abs="45.579333" NOx_abs="906.398287" fuel_abs="790142.573985" electricity_abs="0"/>
    </tripinfo>
    <tripinfo id="39" depart="18006.00" departLane="31129765_0" departPos="5.10" departSpeed="0.00" departDelay="6.00" arrival="18670.00" arrivalLane="31129765_0" arrivalPos="639.51" arrivalSpeed="19.50" duration="664.00" routeLength="6654.49" waitingTime="119.00" waitingCount="5" stopTime="20.00" timeLoss="187.38" rerouteNo="3" devices="vehroute_39 tripinfo_39 emissions_39" vType="vecType" speedFactor="0.90" vaporized="">
        <emissions CO_abs="42466.107635" CO2_abs="1938363.770170" HC_abs="237.637857" PMx_abs="35.071036" NOx_abs="771.060467" fuel_abs="618257.774128" electricity_abs="0"/>
    </tripinfo>
    <tripinfo id="16" depart="18006.00" departLane="90077241_0" departPos="5.10" departSpeed="0.00" departDelay="6.00" arrival="18688.00" arrivalLane="90077241_0" arrivalPos="3225.35" arrivalSpeed="24.46" duration="682.00" routeLength="11625.26" waitingTime="80.00" waitingCount="2" stopTime="20.00" timeLoss="138.05" rerouteNo="1" devices="vehroute_16 tripinfo_16 emissions_16" vType="vecType" speedFactor="0.88" vaporized="">
        <emissions CO_abs="41466.063282" CO2_abs="2626338.286689" HC_abs="249.227688" PMx_abs="50.538124" NOx_abs="996.747154" fuel_abs="837684.228411" electricity_abs="0"/>
    </tripinfo>
    <tripinfo id="36" depart="18009.00" departLane="123867455_0" departPos="5.10" departSpeed="0.00" departDelay="9.00" arrival="18703.00" arrivalLane="123867455_0" arrivalPos="904.85" arrivalSpeed="27.04" duration="694.00" routeLength="5901.75" waitingTime="206.00" waitingCount="7" stopTime="20.00" timeLoss="290.20" rerouteNo="2" devices="vehroute_36 tripinfo_36 emissions_36" vType="vecType" speedFactor="0.97" vaporized="">
        <emissions CO_abs="58443.706954" CO2_abs="2088471.167155" HC_abs="315.124669" PMx_abs="41.374818" NOx_abs="856.003836" fuel_abs="666139.987099" electricity_abs="0"/>
    </tripinfo>
    <tripinfo id="21" depart="18000.00" departLane="27167762_0" departPos="5.10" departSpeed="0.00" departDelay="0.00" arrival="18711.00" arrivalLane="27167762_0" arrivalPos="139.02" arrivalSpeed="21.91" duration="711.00" routeLength="6149.27" waitingTime="176.00" waitingCount="7" stopTime="20.00" timeLoss="260.12" rerouteNo="2" devices="vehroute_21 tripinfo_21 emissions_21" vType="vecType" speedFactor="1.01" vaporized="">
        <emissions CO_abs="54452.636022" CO2_abs="2166429.889664" HC_abs="298.887482" PMx_abs="41.352446" NOx_abs="887.692956" fuel_abs="691002.919769" electricity_abs="0"/>
    </tripinfo>
    <tripinfo id="31" depart="18006.00" departLane="123867455_0" departPos="5.10" departSpeed="0.00" departDelay="6.00" arrival="18724.00" arrivalLane="123867455_0" arrivalPos="904.85" arrivalSpeed="33.25" duration="718.00" routeLength="7632.90" waitingTime="133.00" waitingCount="7" stopTime="20.00" timeLoss="233.12" rerouteNo="1" devices="vehroute_31 tripinfo_31 emissions_31" vType="vecType" speedFactor="1.15" vaporized="">
        <emissions CO_abs="50556.955224" CO2_abs="2350123.381416" HC_abs="285.002930" PMx_abs="45.153090" NOx_abs="950.311729" fuel_abs="749588.882169" electricity_abs="0"/>
    </tripinfo>
    <tripinfo id="63" depart="18063.00" departLane="-204967525_0" departPos="5.10" departSpeed="0.00" departDelay="3.00" arrival="18748.00" arrivalLane="-204967525_1" arrivalPos="146.26" arrivalSpeed="10.10" duration="685.00" routeLength="4830.14" waitingTime="137.00" waitingCount="7" stopTime="20.00" timeLoss="227.07" rerouteNo="1" devices="vehroute_63 tripinfo_63 emissions_63" vType="vecType" speedFactor="0.99" vaporized="">
        <emissions CO_abs="42096.115760" CO2_abs="1561305.378021" HC_abs="227.581342" PMx_abs="26.398353" NOx_abs="632.165007" fuel_abs="497997.436573" electricity_abs="0"/>
    </tripinfo>
    <tripinfo id="77" depart="18120.00" departLane="90077241_0" departPos="5.10" departSpeed="0.00" departDelay="0.00" arrival="18750.00" arrivalLane="90077241_0" arrivalPos="3225.35" arrivalSpeed="27.47" duration="630.00" routeLength="11810.95" waitingTime="38.00" waitingCount="3" stopTime="20.00" timeLoss="100.68" rerouteNo="2" devices="vehroute_77 tripinfo_77 emissions_77" vType="vecType" speedFactor="0.98" vaporized="">
        <emissions CO_abs="42961.628413" CO2_abs="2721103.345487" HC_abs="261.330348" PMx_abs="55.738230" NOx_abs="1037.153479" fuel_abs="867908.302540" electricity_abs="0"/>
    </tripinfo>
    <tripinfo id="15" depart="18000.00" departLane="-24310636#2_0" departPos="5.10" departSpeed="0.00" departDelay="0.00" arrival="18753.00" arrivalLane="-24310636#2_1" arrivalPos="108.36" arrivalSpeed="9.85" duration="753.00" routeLength="6010.81" waitingTime="130.00" waitingCount="6" stopTime="20.00" timeLoss="212.45" rerouteNo="1" devices="vehroute_15 tripinfo_15 emissions_15" vType="vecType" speedFactor="0.93" vaporized="">
        <emissions CO_abs="45046.061777" CO2_abs="1851437.967748" HC_abs="247.559228" PMx_abs="31.630145" NOx_abs="745.000787" fuel_abs="590535.688646" electricity_abs="0"/>
    </tripinfo>
    <tripinfo id="33" depart="18000.00" departLane="144489137#0_0" departPos="5.10" departSpeed="0.00" departDelay="0.00" arrival="18780.00" arrivalLane="144489137#0_0" arrivalPos="135.49" arrivalSpeed="12.62" duration="780.00" routeLength="3872.00" waitingTime="368.00" waitingCount="14" stopTime="20.00" timeLoss="467.21" rerouteNo="1" devices="vehroute_33 tripinfo_33 emissions_33" vType="vecType" speedFactor="1.17" vaporized="">
        <emissions CO_abs="79755.106221" CO2_abs="2108696.879252" HC_abs="411.315019" PMx_abs="43.072970" NOx_abs="898.465449" fuel_abs="672600.827842" electricity_abs="0"/>
    </tripinfo>
    <tripinfo id="82" depart="18123.00" departLane="-133781749_0" departPos="5.10" departSpeed="0.00" departDelay="3.00" arrival="18783.00" arrivalLane="-133781749_0" arrivalPos="138.68" arrivalSpeed="10.86" duration="660.00" routeLength="5499.56" waitingTime="104.00" waitingCount="9" stopTime="20.00" timeLoss="210.64" rerouteNo="1" devices="vehroute_82 tripinfo_82 emissions_82" vType="vecType" speedFactor="1.02" vaporized="">
        <emissions CO_abs="42140.447618" CO2_abs="1801832.545327" HC_abs="233.757875" PMx_abs="32.220047" NOx_abs="732.157415" fuel_abs="574711.030420" electricity_abs="0"/>
    </tripinfo>
    <tripinfo id="0" depart="18000.00" departLane="84823308_0" departPos="5.10" departSpeed="0.00" departDelay="0.00" arrival="18795.00" arrivalLane="84823308_0" arrivalPos="275.63" arrivalSpeed="11.64" duration="795.00" routeLength="5694.44" waitingTime="204.00" waitingCount="8" stopTime="20.00" timeLoss="294.32" rerouteNo="2" devices="vehroute_0 tripinfo_0 emissions_0" vType="vecType" speedFactor="1.06" vaporized="">
        <emissions CO_abs="54021.019579" CO2_abs="1968870.808149" HC_abs="290.995363" PMx_abs="34.100848" NOx_abs="798.964296" fuel_abs="627995.345704" electricity_abs="0"/>
    </tripinfo>
    <tripinfo id="28" depart="18009.00" departLane="90077241_0" departPos="5.10" departSpeed="0.00" departDelay="9.00" arrival="18801.00" arrivalLane="90077241_0" arrivalPos="3225.35" arrivalSpeed="32.02" duration="792.00" routeLength="13611.29" waitingTime="125.00" waitingCount="5" stopTime="20.00" timeLoss="208.70" rerouteNo="3" devices="vehroute_28 tripinfo_28 emissions_28" vType="vecType" speedFactor="1.13" vaporized="">
        <emissions CO_abs="76350.666491" CO2_abs="3697421.077573" HC_abs="438.870406" PMx_abs="82.024094" NOx_abs="1453.547378" fuel_abs="1179313.620201" electricity_abs="0"/>
    </tripinfo>
    <tripinfo id="13" depart="18003.00" departLane="90077241_0" departPos="5.10" departSpeed="0.00" departDelay="3.00" arrival="18836.00" arrivalLane="90077241_0" arrivalPos="3225.35" arrivalSpeed="32.62" duration="833.00" routeLength="12752.38" waitingTime="214.00" waitingCount="7" stopTime="20.00" timeLoss="292.77" rerouteNo="1" devices="vehroute_13 tripinfo_13 emissions_13" vType="vecType" speedFactor="1.12" vaporized="">
        <emissions CO_abs="88159.518575" CO2_abs="3709193.517093" HC_abs="492.947372" PMx_abs="83.479185" NOx_abs="1473.324738" fuel_abs="1183073.954275" electricity_abs="0"/>
    </tripinfo>
    <tripinfo id="84" depart="18123.00" departLane="90077241_0" departPos="5.10" departSpeed="0.00" departDelay="3.00" arrival="18849.00" arrivalLane="90077241_0" arrivalPos="3225.35" arrivalSpeed="33.10" duration="726.00" routeLength="12280.95" waitingTime="164.00" waitingCount="5" stopTime="20.00" timeLoss="230.51" rerouteNo="1" devices="vehroute_84 tripinfo_84 emissions_84" vType="vecType" speedFactor="1.15" vaporized="">
        <emissions CO_abs="79757.320752" CO2_abs="3438755.604938" HC_abs="448.438653" PMx_abs="79.208639" NOx_abs="1362.374919" fuel_abs="1096813.643070" electricity_abs="0"/>
    </tripinfo>
    <tripinfo id="93" depart="18120.00" departLane="-254758121#2_0" departPos="5.10" departSpeed="0.00" departDelay="0.00" arrival="18851.00" arrivalLane="-254758121#2_0" arrivalPos="99.35" arrivalSpeed="9.77" duration="731.00" routeLength="4676.45" waitingTime="181.00" waitingCount="6" stopTime="20.00" timeLoss="256.90" rerouteNo="2" devices="vehroute_93 tripinfo_93 emissions_93" vType="vecType" speedFactor="0.92" vaporized="">
        <emissions CO_abs="51133.235169" CO2_abs="1715372.559486" HC_abs="272.393090" PMx_abs="30.507000" NOx_abs="706.472507" fuel_abs="547140.246780" electricity_abs="0"/>
    </tripinfo>
    <tripinfo id="24" depart="18003.00" departLane="123867455_0" departPos="5.10" departSpeed="0.00" departDelay="3.00" arrival="18860.00" arrivalLane="123867455_0" arrivalPos="904.85" arrivalSpeed="23.74" duration="857.00" routeLength="6219.34" waitingTime="221.00" waitingCount="10" stopTime="20.00" timeLoss="319.55" rerouteNo="2" devices="vehroute_24 tripinfo_24 emissions_24" vType="vecType" speedFactor="0.83" vaporized="">
        <emissions CO_abs="66611.047610" CO2_abs="2260599.087567" HC_abs="355.342798" PMx_abs="43.027733" NOx_abs="926.438385" fuel_abs="721044.992834" electricity_abs="0"/>
    </tripinfo>
    <tripinfo id="47" depart="18060.00" departLane="90077241_0" departPos="5.10" departSpeed="0.00" departDelay="0.00" arrival="18868.00" arrivalLane="90077241_0" arrivalPos="3225.35" arrivalSpeed="25.37" duration="808.00" routeLength="12218.00" waitingTime="131.00" waitingCount="4" stopTime="20.00" timeLoss="188.68" rerouteNo="2" devices="vehroute_47 tripinfo_47 emissions_47" vType="vecType" speedFactor="0.90" vaporized="">
        <emissions CO_abs="52556.706082" CO2_abs="2904183.666361" HC_abs="306.883821" PMx_abs="56.029216" NOx_abs="1110.058605" fuel_abs="926308.366427" electricity_abs="0"/>
    </tripinfo>
    <tripinfo id="64" depart="18060.00" departLane="28319343#2_0" departPos="5.10" departSpeed="0.00" departDelay="0.00" arrival="18872.00" arrivalLane="28319343#2_0" arrivalPos="90.58" arrivalSpeed="9.18" duration="812.00" routeLength="9974.14" waitingTime="196.00" waitingCount="7" stopTime="20.00" timeLoss="265.58" rerouteNo="2" devices="vehroute_64 tripinfo_64 emissions_64" vType="vecType" speedFactor="0.94" vaporized="">
        <emissions CO_abs="61188.564868" CO2_abs="2678000.852808" HC_abs="341.291280" PMx_abs="52.784707" NOx_abs="1048.842266" fuel_abs="854171.556567" electricity_abs="0"/>
    </tripinfo>
    <tripinfo id="73" depart="18120.00" departLane="-204967525_0" departPos="5.10" departSpeed="0.00" departDelay="0.00" arrival="18879.00" arrivalLane="-204967525_1" arrivalPos="146.26" arrivalSpeed="10.55" duration="759.00" routeLength="5090.57" waitingTime="215.00" waitingCount="8" stopTime="20.00" timeLoss="307.07" rerouteNo="1" devices="vehroute_73 tripinfo_73 emissions_73" vType="vecType" speedFactor="1.06" vaporized="">
        <emissions CO_abs="56937.178134" CO2_abs="1981154.487346" HC_abs="305.017786" PMx_abs="36.355440" NOx_abs="819.404046" fuel_abs="631912.523419" electricity_abs="0"/>
    </tripinfo>
    <tripinfo id="27" depart="18000.00" departLane="-8916048_0" departPos="5.10" departSpeed="0.00" departDelay="0.00" arrival="18881.00" arrivalLane="-8916048_0" arrivalPos="126.72" arrivalSpeed="10.46" duration="881.00" routeLength="6742.86" waitingTime="182.00" waitingCount="7" stopTime="20.00" timeLoss="283.73" rerouteNo="1" devices="vehroute_27 tripinfo_27 emissions_27" vType="vecType" speedFactor="0.95" vaporized="">
        <emissions CO_abs="57156.007356" CO2_abs="2203110.697191" HC_abs="310.919927" PMx_abs="38.833485" NOx_abs="895.802067" fuel_abs="702706.189595" electricity_abs="0"/>
    </tripinfo>
    <tripinfo id="85" depart="18126.00" departLane="90077241_0" departPos="5.10" departSpeed="0.00" departDelay="6.00" arrival="18887.00" arrivalLane="90077241_0" arrivalPos="3225.35" arrivalSpeed="27.71" duration="761.00" routeLength="11984.76" waitingTime="144.00" waitingCount="6" stopTime="20.00" timeLoss="211.72" rerouteNo="1" devices="vehroute_85 tripinfo_85 emissions_85" vType="vecType" speedFactor="0.98" vaporized="">
        <emissions CO_abs="60694.344129" CO2_abs="3028247.309912" HC_abs="349.513730" PMx_abs="63.022339" NOx_abs="1176.085382" fuel_abs="965879.224618" electricity_abs="0"/>
    </tripinfo>
    <tripinfo id="42" depart="18009.00" departLane="31129765_0" departPos="5.10" departSpeed="0.00" departDelay="9.00" arrival="18895.00" arrivalLane="31129765_0" arrivalPos="639.51" arrivalSpeed="24.20" duration="886.00" routeLength="7763.38" waitingTime="282.00" waitingCount="12" stopTime="20.00" timeLoss="397.71" rerouteNo="1" devices="vehroute_42 tripinfo_42 emissions_42" vType="vecType" speedFactor="1.09" vaporized="">
        <emissions CO_abs="79114.979420" CO2_abs="2862589.622420" HC_abs="427.384931" PMx_abs="58.298000" NOx_abs="1183.544302" fuel_abs="913050.695679" electricity_abs="0"/>
    </tripinfo>
    <tripinfo id="79" depart="18120.00" departLane="-24310636#2_0" departPos="5.10" departSpeed="0.00" departDelay="0.00" arrival="18907.00" arrivalLane="-24310636#2_1" arrivalPos="108.36" arrivalSpeed="11.79" duration="787.00" routeLength="6581.41" waitingTime="182.00" waitingCount="6" stopTime="20.00" timeLoss="275.93" rerouteNo="1" devices="vehroute_79 tripinfo_79 emissions_79" vType="vecType" speedFactor="1.09" vaporized="">
        <emissions CO_abs="53656.942667" CO2_abs="2171199.228425" HC_abs="294.221184" PMx_abs="39.826036" NOx_abs="886.953377" fuel_abs="692524.734143" electricity_abs="0"/>
    </tripinfo>
    <tripinfo id="99" depart="18180.00" departLane="-27029204_0" departPos="5.10" departSpeed="0.00" departDelay="0.00" arrival="18917.00" arrivalLane="-27029204_0" arrivalPos="195.60" arrivalSpeed="11.30" duration="737.00" routeLength="5700.35" waitingTime="217.00" waitingCount="8" stopTime="20.00" timeLoss="302.12" rerouteNo="2" devices="vehroute_99 tripinfo_99 emissions_99" vType="vecType" speedFactor="1.10" vaporized="">
        <emissions CO_abs="58048.666083" CO2_abs="2100950.595565" HC_abs="312.963933" PMx_abs="40.076318" NOx_abs="867.249387" fuel_abs="670120.469301" electricity_abs="0"/>
    </tripinfo>
    <tripinfo id="20" depart="18000.00" departLane="123867455_0" departPos="5.10" departSpeed="0.00" departDelay="0.00" arrival="18927.00" arrivalLane="123867455_0" arrivalPos="904.85" arrivalSpeed="29.44" duration="927.00" routeLength="7532.61" waitingTime="254.00" waitingCount="12" stopTime="20.00" timeLoss="371.65" rerouteNo="2" devices="vehroute_20 tripinfo_20 emissions_20" vType="vecType" speedFactor="1.02" vaporized="">
        <emissions CO_abs="77738.284451" CO2_abs="2793152.971479" HC_abs="419.907212" PMx_abs="54.784698" NOx_abs="1144.879129" fuel_abs="890905.927381" electricity_abs="0"/>
    </tripinfo>
    <tripinfo id="88" depart="18123.00" departLane="31129765_0" departPos="5.10" departSpeed="0.00" departDelay="3.00" arrival="18927.00" arrivalLane="31129765_0" arrivalPos="639.51" arrivalSpeed="21.51" duration="804.00" routeLength="6946.37" waitingTime="259.00" waitingCount="9" stopTime="20.00" timeLoss="349.75" rerouteNo="1" devices="vehroute_88 tripinfo_88 emissions_88" vType="vecType" speedFactor="1.01" vaporized="">
        <emissions CO_abs="69195.848669" CO2_abs="2484163.374603" HC_abs="373.149439" PMx_abs="49.307087" NOx_abs="1017.033305" fuel_abs="792349.922832" electricity_abs="0"/>
    </tripinfo>
    <tripinfo id="56" depart="18066.00" departLane="31129765_0" departPos="5.10" departSpeed="0.00" departDelay="6.00" arrival="18940.00" arrivalLane="31129765_0" arrivalPos="639.51" arrivalSpeed="20.08" duration="874.00" routeLength="7570.11" waitingTime="220.00" waitingCount="6" stopTime="20.00" timeLoss="305.95" rerouteNo="2" devices="vehroute_56 tripinfo_56 emissions_56" vType="vecType" speedFactor="0.90" vaporized="">
        <emissions CO_abs="63636.563830" CO2_abs="2439236.327818" HC_abs="345.902813" PMx_abs="45.611444" NOx_abs="989.035233" fuel_abs="778019.547794" electricity_abs="0"/>
    </tripinfo>
    <tripinfo id="3" depart="18000.00" departLane="-133781749_0" departPos="5.10" departSpeed="0.00" departDelay="0.00" arrival="18957.00" arrivalLane="-133781749_0" arrivalPos="138.68" arrivalSpeed="11.96" duration="957.00" routeLength="7501.04" waitingTime="240.00" waitingCount="12" stopTime="20.00" timeLoss="368.73" rerouteNo="1" devices="vehroute_3 tripinfo_3 emissions_3" vType="vecType" speedFactor="1.08" vaporized="">
        <emissions CO_abs="69472.459192" CO2_abs="2606214.073153" HC_abs="376.796904" PMx_abs="48.660409" NOx_abs="1073.143500" fuel_abs="831278.909351" electricity_abs="0"/>
    </tripinfo>
    <tripinfo id="90" depart="18120.00" departLane="-254758120#3_0" departPos="5.10" departSpeed="0.00" departDelay="0.00" arrival="18957.00" arrivalLane="-254758120#3_0" arrivalPos="147.41" arrivalSpeed="10.41" duration="837.00" routeLength="5221.94" waitingTime="268.00" waitingCount="10" stopTime="20.00" timeLoss="357.03" rerouteNo="1" devices="vehroute_90 tripinfo_90 emissions_90" vType="vecType" speedFactor="1.02" vaporized="">
        <emissions CO_abs="64665.172245" CO2_abs="2021151.779532" HC_abs="341.080336" PMx_abs="36.782599" NOx_abs="833.960446" fuel_abs="644674.668897" electricity_abs="0"/>
    </tripinfo>
    <tripinfo id="43" depart="18012.00" departLane="123867455_0" departPos="5.10" departSpeed="0.00" departDelay="12.00" arrival="18965.00" arrivalLane="123867455_0" arrivalPos="904.85" arrivalSpeed="29.12" duration="953.00" routeLength="8303.33" waitingTime="229.00" waitingCount="10" stopTime="20.00" timeLoss="358.82" rerouteNo="2" devices="vehroute_43 tripinfo_43 emissions_43" vType="vecType" speedFactor="1.04" vaporized="">
        <emissions CO_abs="72472.826094" CO2_abs="2848510.938169" HC_abs="396.622227" PMx_abs="54.127563" NOx_abs="1162.425512" fuel_abs="908559.947223" electricity_abs="0"/>
    </tripinfo>
    <tripinfo id="41" depart="18003.00" departLane="144489137#0_0" departPos="5.10" departSpeed="0.00" departDelay="3.00" arrival="18974.00" arrivalLane="144489137#0_0" arrivalPos="135.49" arrivalSpeed="9.97" duration="971.00" routeLength="5119.82" waitingTime="367.00" waitingCount="15" stopTime="20.00" timeLoss="475.73" rerouteNo="1" devices="vehroute_41 tripinfo_41 emissions_41" vType="vecType" speedFactor="0.96" vaporized="">
        <emissions CO_abs="85203.533007" CO2_abs="2341380.998878" HC_abs="442.124650" PMx_abs="44.990392" NOx_abs="984.778845" fuel_abs="746819.803472" electricity_abs="0"/>
    </tripinfo>
    <tripinfo id="29" depart="18000.00" departLane="-35977367#2_0" departPos="5.10" departSpeed="0.00" departDelay="0.00" arrival="18985.00" arrivalLane="-35977367#2_0" arrivalPos="431.73" arrivalSpeed="9.47" duration="985.00" routeLength="6484.06" waitingTime="239.00" waitingCount="8" stopTime="20.00" timeLoss="341.42" rerouteNo="2" devices="vehroute_29 tripinfo_29 emissions_29" vType="vecType" speedFactor="0.93" vaporized="">
        <emissions CO_abs="67195.454279" CO2_abs="2318396.931353" HC_abs="359.292305" PMx_abs="40.113730" NOx_abs="947.098845" fuel_abs="739482.748178" electricity_abs="0"/>
    </tripinfo>
    <tripinfo id="70" depart="18120.00" departLane="255330036#13_0" departPos="5.10" departSpeed="0.00" departDelay="0.00" arrival="18991.00" arrivalLane="255330036#13_0" arrivalPos="197.08" arrivalSpeed="10.14" duration="871.00" routeLength="7430.88" waitingTime="157.00" waitingCount="7" stopTime="20.00" timeLoss="252.92" rerouteNo="1" devices="vehroute_70 tripinfo_70 emissions_70" vType="vecType" speedFactor="1.02" vaporized="">
        <emissions CO_abs="51628.374131" CO2_abs="2249385.836827" HC_abs="287.068913" PMx_abs="38.390579" NOx_abs="902.772925" fuel_abs="717463.743728" electricity_abs="0"/>
    </tripinfo>
    <tripinfo id="50" depart="18060.00" departLane="254396707#6_0" departPos="5.10" departSpeed="0.00" departDelay="0.00" arrival="18992.00" arrivalLane="254396707#6_0" arrivalPos="139.12" arrivalSpeed="8.86" duration="932.00" routeLength="4531.25" waitingTime="337.00" waitingCount="14" stopTime="20.00" timeLoss="439.63" rerouteNo="1" devices="vehroute_50 tripinfo_50 emissions_50" vType="vecType" speedFactor="0.85" vaporized="">
        <emissions CO_abs="81095.792446" CO2_abs="2145864.710662" HC_abs="418.769147" PMx_abs="41.059367" NOx_abs="904.266280" fuel_abs="684458.723178" electricity_abs="0"/>
    </tripinfo>
    <tripinfo id="37" depart="18003.00" departLane="27398045#1_0" departPos="5.10" departSpeed="0.00" departDelay="3.00" arrival="18999.00" arrivalLane="27398045#1_0" arrivalPos="122.17" arrivalSpeed="12.03" duration="996.00" routeLength="6765.07" waitingTime="327.00" waitingCount="13" stopTime="20.00" timeLoss="465.76" rerouteNo="2" devices="vehroute_37 tripinfo_37 emissions_37" vType="vecType" speedFactor="1.18" vaporized="">
        <emissions CO_abs="81444.613425" CO2_abs="2685497.622907" HC_abs="431.760819" PMx_abs="51.099501" NOx_abs="1117.772532" fuel_abs="856571.802680" electricity_abs="0"/>
    </tripinfo>
    <tripinfo id="34" depart="18000.00" departLane="-133755930#1_0" departPos="5.10" departSpeed="0.00" departDelay="0.00" arrival="19004.00" arrivalLane="-133755930#1_1" arrivalPos="16.00" arrivalSpeed="10.85" duration="1004.00" routeLength="4779.15" waitingTime="453.00" waitingCount="15" stopTime="20.00" timeLoss="553.84" rerouteNo="1" devices="vehroute_34 tripinfo_34 emissions_34" vType="vecType" speedFactor="0.99" vaporized="">
        <emissions CO_abs="97627.980479" CO2_abs="2496805.177576" HC_abs="502.559432" PMx_abs="50.226022" NOx_abs="1064.014083" fuel_abs="796396.577161" electricity_abs="0"/>
    </tripinfo>
    <tripinfo id="40" depart="18000.00" departLane="-206679802#4_0" departPos="5.10" departSpeed="0.00" departDelay="0.00" arrival="19008.00" arrivalLane="-206679802#4_0" arrivalPos="292.11" arrivalSpeed="11.34" duration="1008.00" routeLength="6674.42" waitingTime="251.00" waitingCount="8" stopTime="20.00" timeLoss="372.84" rerouteNo="2" devices="vehroute_40 tripinfo_40 emissions_40" vType="vecType" speedFactor="1.03" vaporized="">
        <emissions CO_abs="71412.284420" CO2_abs="2449759.795927" HC_abs="381.584483" PMx_abs="43.855453" NOx_abs="1006.224380" fuel_abs="781381.573646" electricity_abs="0"/>
    </tripinfo>