<?xml version="1.0" encoding="UTF-8"?>

<!-- generated on 2023-01-09 09:24:18 by Eclipse SUMO sumo Version 1.14.1
<configuration xmlns:xsi="http://www.w3.org/2001/XMLSchema-instance" xsi:noNamespaceSchemaLocation="http://sumo.dlr.de/xsd/sumoConfiguration.xsd">

    <input>
        <net-file value="./strategia2_config/../san_francisco.net.xml"/>
        <route-files value="./strategia2_config/../san_francisco.rou.xml"/>
        <additional-files value="./strategia2_config/../san_francisco.poly.xml,./strategia2_config/../parking_capacity_100%25/off_parking_100%25.add.xml,./strategia2_config/../parking_capacity_100%25/on_parking_100%25.add.xml"/>
    </input>

    <output>
        <emission-output value="./strategia2_config/../output/strategia2/100%25/emissions.xml"/>
        <tripinfo-output value="./strategia2_config/../output/strategia2/100%25/tripinfo.xml"/>
        <vehroute-output value="./strategia2_config/../output/strategia2/100%25/vehroute.xml"/>
        <stop-output value="./strategia2_config/../output/strategia2/100%25/stops.xml"/>
        <collision-output value="./strategia2_config/../output/strategia2/100%25/collision.xml"/>
        <statistic-output value="./strategia2_config/../output/strategia2/100%25/statistic.xml"/>
    </output>

    <time>
        <step-length value="1"/>
    </time>

    <processing>
        <ignore-route-errors value="false"/>
    </processing>

    <report>
        <verbose value="true"/>
        <xml-validation value="never"/>
    </report>

    <traci_server>
        <remote-port value="54143"/>
    </traci_server>

    <gui_only>
        <gui-settings-file value="./strategia2_config/../gui-settings.cfg"/>
        <start value="true"/>
    </gui_only>

</configuration>
-->

<tripinfos xmlns:xsi="http://www.w3.org/2001/XMLSchema-instance" xsi:noNamespaceSchemaLocation="http://sumo.dlr.de/xsd/tripinfo_file.xsd">
    <tripinfo id="31" depart="18006.00" departLane="123867455_0" departPos="5.10" departSpeed="0.00" departDelay="6.00" arrival="19624.00" arrivalLane="123867455_0" arrivalPos="904.85" arrivalSpeed="33.40" duration="1618.00" routeLength="7632.90" waitingTime="132.00" waitingCount="8" stopTime="916.00" timeLoss="237.24" rerouteNo="1" devices="vehroute_31 tripinfo_31 emissions_31" vType="vecType" speedFactor="1.15" vaporized="">
        <emissions CO_abs="51388.994485" CO2_abs="2385154.026402" HC_abs="289.322464" PMx_abs="45.960607" NOx_abs="967.458066" fuel_abs="760761.849451" electricity_abs="0"/>
    </tripinfo>
    <tripinfo id="6" depart="18000.00" departLane="225806031#0_0" departPos="5.10" departSpeed="0.00" departDelay="0.00" arrival="20156.00" arrivalLane="225806031#0_0" arrivalPos="142.16" arrivalSpeed="11.69" duration="2156.00" routeLength="6532.67" waitingTime="480.00" waitingCount="17" stopTime="981.00" timeLoss="617.33" rerouteNo="1" devices="vehroute_6 tripinfo_6 emissions_6" vType="vecType" speedFactor="1.05" vaporized="">
        <emissions CO_abs="108128.611771" CO2_abs="3024087.223288" HC_abs="562.422591" PMx_abs="58.935271" NOx_abs="1273.923919" fuel_abs="964577.659512" electricity_abs="0"/>
    </tripinfo>
    <tripinfo id="148" depart="18480.00" departLane="31129765_0" departPos="5.10" departSpeed="0.00" departDelay="0.00" arrival="20181.00" arrivalLane="31129765_0" arrivalPos="639.51" arrivalSpeed="24.44" duration="1701.00" routeLength="6449.60" waitingTime="107.00" waitingCount="5" stopTime="1163.00" timeLoss="179.80" rerouteNo="2" devices="vehroute_148 tripinfo_148 emissions_148" vType="vecType" speedFactor="1.10" vaporized="">
        <emissions CO_abs="42647.154340" CO2_abs="1980994.924259" HC_abs="240.845485" PMx_abs="39.328623" NOx_abs="796.442868" fuel_abs="631852.245083" electricity_abs="0"/>
    </tripinfo>
    <tripinfo id="195" depart="18660.00" departLane="224384035#0_0" departPos="5.10" departSpeed="0.00" departDelay="0.00" arrival="20248.00" arrivalLane="224384035#0_0" arrivalPos="123.84" arrivalSpeed="11.75" duration="1588.00" routeLength="4652.37" waitingTime="76.00" waitingCount="4" stopTime="1084.00" timeLoss="132.17" rerouteNo="1" devices="vehroute_195 tripinfo_195 emissions_195" vType="vecType" speedFactor="1.11" vaporized="">
        <emissions CO_abs="26927.161398" CO2_abs="1338687.131508" HC_abs="152.970272" PMx_abs="21.965896" NOx_abs="533.125745" fuel_abs="426985.853824" electricity_abs="0"/>
    </tripinfo>
    <tripinfo id="123" depart="18240.00" departLane="31129765_0" departPos="5.10" departSpeed="0.00" departDelay="0.00" arrival="20339.00" arrivalLane="31129765_0" arrivalPos="639.51" arrivalSpeed="22.07" duration="2099.00" routeLength="7763.38" waitingTime="269.00" waitingCount="13" stopTime="1214.00" timeLoss="385.20" rerouteNo="1" devices="vehroute_123 tripinfo_123 emissions_123" vType="vecType" speedFactor="1.02" vaporized="">
        <emissions CO_abs="76858.378965" CO2_abs="2789561.363354" HC_abs="415.380004" PMx_abs="55.476849" NOx_abs="1147.702943" fuel_abs="889758.723407" electricity_abs="0"/>
    </tripinfo>
    <tripinfo id="162" depart="18543.00" departLane="90077241_0" departPos="5.10" departSpeed="0.00" departDelay="3.00" arrival="20367.00" arrivalLane="90077241_0" arrivalPos="3225.35" arrivalSpeed="28.40" duration="1824.00" routeLength="11625.26" waitingTime="121.00" waitingCount="4" stopTime="1182.00" timeLoss="180.59" rerouteNo="1" devices="vehroute_162 tripinfo_162 emissions_162" vType="vecType" speedFactor="1.00" vaporized="">
        <emissions CO_abs="56874.579160" CO2_abs="2955264.218131" HC_abs="331.045404" PMx_abs="63.012207" NOx_abs="1145.701115" fuel_abs="942598.511933" electricity_abs="0"/>
    </tripinfo>
    <tripinfo id="206" depart="18963.00" departLane="90077241_0" departPos="5.10" departSpeed="0.00" departDelay="3.00" arrival="20430.00" arrivalLane="90077241_0" arrivalPos="3225.35" arrivalSpeed="32.54" duration="1467.00" routeLength="12001.91" waitingTime="33.00" waitingCount="3" stopTime="925.00" timeLoss="91.50" rerouteNo="1" devices="vehroute_206 tripinfo_206 emissions_206" vType="vecType" speedFactor="1.16" vaporized="">
        <emissions CO_abs="56219.865968" CO2_abs="2979092.264057" HC_abs="330.540943" PMx_abs="68.253968" NOx_abs="1151.176556" fuel_abs="950195.313208" electricity_abs="0"/>
    </tripinfo>
    <tripinfo id="105" depart="18183.00" departLane="8915254_0" departPos="5.10" departSpeed="0.00" departDelay="3.00" arrival="20450.00" arrivalLane="8915254_0" arrivalPos="317.12" arrivalSpeed="23.00" duration="2267.00" routeLength="5890.78" waitingTime="341.00" waitingCount="13" stopTime="1395.00" timeLoss="459.31" rerouteNo="1" devices="vehroute_105 tripinfo_105 emissions_105" vType="vecType" speedFactor="1.07" vaporized="">
        <emissions CO_abs="83794.982516" CO2_abs="2608643.543257" HC_abs="442.240481" PMx_abs="52.388796" NOx_abs="1095.913055" fuel_abs="832058.811370" electricity_abs="0"/>
    </tripinfo>
    <tripinfo id="153" depart="18483.00" departLane="142972028#1_0" departPos="5.10" departSpeed="0.00" departDelay="3.00" arrival="20487.00" arrivalLane="142972028#1_0" arrivalPos="161.20" arrivalSpeed="10.01" duration="2004.00" routeLength="5233.71" waitingTime="314.00" waitingCount="14" stopTime="1082.00" timeLoss="412.73" rerouteNo="1" devices="vehroute_153 tripinfo_153 emissions_153" vType="vecType" speedFactor="0.92" vaporized="">
        <emissions CO_abs="76647.722899" CO2_abs="2211627.019031" HC_abs="399.975692" PMx_abs="40.773186" NOx_abs="919.942106" fuel_abs="705432.200204" electricity_abs="0"/>
    </tripinfo>
    <tripinfo id="126" depart="18240.00" departLane="-133755930#1_0" departPos="5.10" departSpeed="0.00" departDelay="0.00" arrival="20534.00" arrivalLane="-133755930#1_1" arrivalPos="16.00" arrivalSpeed="10.90" duration="2294.00" routeLength="5502.38" waitingTime="462.00" waitingCount="13" stopTime="1255.00" timeLoss="561.86" rerouteNo="2" devices="vehroute_126 tripinfo_126 emissions_126" vType="vecType" speedFactor="1.03" vaporized="">
        <emissions CO_abs="98066.138955" CO2_abs="2613614.232730" HC_abs="507.110560" PMx_abs="51.354146" NOx_abs="1103.880513" fuel_abs="833653.644874" electricity_abs="0"/>
    </tripinfo>
    <tripinfo id="70" depart="18120.00" departLane="255330036#13_0" departPos="5.10" departSpeed="0.00" departDelay="0.00" arrival="20611.00" arrivalLane="255330036#13_0" arrivalPos="197.08" arrivalSpeed="11.00" duration="2491.00" routeLength="7430.88" waitingTime="157.00" waitingCount="7" stopTime="1643.00" timeLoss="250.82" rerouteNo="1" devices="vehroute_70 tripinfo_70 emissions_70" vType="vecType" speedFactor="1.02" vaporized="">
        <emissions CO_abs="51319.658706" CO2_abs="2246446.562454" HC_abs="285.440681" PMx_abs="38.384673" NOx_abs="901.139140" fuel_abs="716526.023617" electricity_abs="0"/>
    </tripinfo>
    <tripinfo id="128" depart="18300.00" departLane="-133781749_0" departPos="5.10" departSpeed="0.00" departDelay="0.00" arrival="20668.00" arrivalLane="-133781749_0" arrivalPos="138.68" arrivalSpeed="11.34" duration="2368.00" routeLength="7923.97" waitingTime="322.00" waitingCount="17" stopTime="1310.00" timeLoss="472.94" rerouteNo="1" devices="vehroute_128 tripinfo_128 emissions_128" vType="vecType" speedFactor="1.12" vaporized="">
        <emissions CO_abs="87103.524980" CO2_abs="3063405.962287" HC_abs="467.088799" PMx_abs="58.329164" NOx_abs="1267.692073" fuel_abs="977107.179025" electricity_abs="0"/>
    </tripinfo>
    <tripinfo id="168" depart="18540.00" departLane="191296172#0_0" departPos="5.10" departSpeed="0.00" departDelay="0.00" arrival="20684.00" arrivalLane="191296172#0_1" arrivalPos="157.44" arrivalSpeed="10.20" duration="2144.00" routeLength="3313.33" waitingTime="11.00" waitingCount="2" stopTime="1778.00" timeLoss="53.09" rerouteNo="2" devices="vehroute_168 tripinfo_168 emissions_168" vType="vecType" speedFactor="0.95" vaporized="">
        <emissions CO_abs="13872.451348" CO2_abs="823780.599254" HC_abs="81.931755" PMx_abs="11.705298" NOx_abs="319.253395" fuel_abs="262752.116105" electricity_abs="0"/>
    </tripinfo>
    <tripinfo id="205" depart="18960.00" departLane="-24310636#2_0" departPos="5.10" departSpeed="0.00" departDelay="0.00" arrival="20701.00" arrivalLane="-24310636#2_1" arrivalPos="108.36" arrivalSpeed="11.67" duration="1741.00" routeLength="5381.13" waitingTime="133.00" waitingCount="5" stopTime="1157.00" timeLoss="207.99" rerouteNo="1" devices="vehroute_205 tripinfo_205 emissions_205" vType="vecType" speedFactor="1.13" vaporized="">
        <emissions CO_abs="42039.524004" CO2_abs="1770557.332090" HC_abs="232.130898" PMx_abs="32.998834" NOx_abs="722.613768" fuel_abs="564734.695124" electricity_abs="0"/>
    </tripinfo>
    <tripinfo id="7" depart="18000.00" departLane="224384035#0_0" departPos="5.10" departSpeed="0.00" departDelay="0.00" arrival="20785.00" arrivalLane="224384035#0_0" arrivalPos="123.84" arrivalSpeed="8.77" duration="2785.00" routeLength="6571.31" waitingTime="267.00" waitingCount="10" stopTime="1753.00" timeLoss="372.71" rerouteNo="2" devices="vehroute_7 tripinfo_7 emissions_7" vType="vecType" speedFactor="0.89" vaporized="">
        <emissions CO_abs="74196.712302" CO2_abs="2423390.404453" HC_abs="393.610882" PMx_abs="42.877934" NOx_abs="997.728507" fuel_abs="772973.085139" electricity_abs="0"/>
    </tripinfo>
    <tripinfo id="8" depart="18003.00" departLane="31129765_0" departPos="5.10" departSpeed="0.00" departDelay="3.00" arrival="20808.00" arrivalLane="31129765_0" arrivalPos="639.51" arrivalSpeed="20.80" duration="2805.00" routeLength="8749.51" waitingTime="381.00" waitingCount="14" stopTime="1661.00" timeLoss="504.62" rerouteNo="2" devices="vehroute_8 tripinfo_8 emissions_8" vType="vecType" speedFactor="0.94" vaporized="">
        <emissions CO_abs="97307.974955" CO2_abs="3229169.919811" HC_abs="517.946568" PMx_abs="62.763339" NOx_abs="1332.550809" fuel_abs="1029982.307641" electricity_abs="0"/>
    </tripinfo>
    <tripinfo id="47" depart="18060.00" departLane="90077241_0" departPos="5.10" departSpeed="0.00" departDelay="0.00" arrival="20865.00" arrivalLane="90077241_0" arrivalPos="3225.35" arrivalSpeed="25.52" duration="2805.00" routeLength="11565.45" waitingTime="8.00" waitingCount="2" stopTime="2220.00" timeLoss="50.68" rerouteNo="1" devices="vehroute_47 tripinfo_47 emissions_47" vType="vecType" speedFactor="0.90" vaporized="">
        <emissions CO_abs="28744.396143" CO2_abs="2386680.566533" HC_abs="186.588225" PMx_abs="45.086640" NOx_abs="889.325655" fuel_abs="761240.613309" electricity_abs="0"/>
    </tripinfo>
    <tripinfo id="25" depart="18003.00" departLane="-23883761_0" departPos="5.10" departSpeed="0.00" departDelay="3.00" arrival="20937.00" arrivalLane="-23883761_0" arrivalPos="197.88" arrivalSpeed="9.74" duration="2934.00" routeLength="7067.07" waitingTime="421.00" waitingCount="20" stopTime="1638.00" timeLoss="570.82" rerouteNo="2" devices="vehroute_25 tripinfo_25 emissions_25" vType="vecType" speedFactor="0.87" vaporized="">
        <emissions CO_abs="106580.302691" CO2_abs="2995158.515943" HC_abs="554.337530" PMx_abs="55.884581" NOx_abs="1252.499167" fuel_abs="955352.357055" electricity_abs="0"/>
    </tripinfo>
    <tripinfo id="82" depart="18123.00" departLane="-133781749_0" departPos="5.10" departSpeed="0.00" departDelay="3.00" arrival="20942.00" arrivalLane="-133781749_0" arrivalPos="138.68" arrivalSpeed="10.58" duration="2819.00" routeLength="5499.56" waitingTime="94.00" waitingCount="8" stopTime="2196.00" timeLoss="193.88" rerouteNo="1" devices="vehroute_82 tripinfo_82 emissions_82" vType="vecType" speedFactor="1.02" vaporized="">
        <emissions CO_abs="39040.379471" CO2_abs="1734563.833381" HC_abs="217.667837" PMx_abs="30.354498" NOx_abs="699.020850" fuel_abs="553254.895953" electricity_abs="0"/>
    </tripinfo>
    <tripinfo id="58" depart="18063.00" departLane="90077241_0" departPos="5.10" departSpeed="0.00" departDelay="3.00" arrival="20952.00" arrivalLane="90077241_0" arrivalPos="3225.35" arrivalSpeed="29.58" duration="2889.00" routeLength="15253.99" waitingTime="319.00" waitingCount="9" stopTime="1725.00" timeLoss="418.55" rerouteNo="2" devices="vehroute_58 tripinfo_58 emissions_58" vType="vecType" speedFactor="1.02" vaporized="">
        <emissions CO_abs="102445.582436" CO2_abs="4293676.783274" HC_abs="570.331449" PMx_abs="89.499163" NOx_abs="1697.736336" fuel_abs="1369504.387206" electricity_abs="0"/>
    </tripinfo>
    <tripinfo id="0" depart="18000.00" departLane="84823308_0" departPos="5.10" departSpeed="0.00" departDelay="0.00" arrival="20955.00" arrivalLane="84823308_0" arrivalPos="275.63" arrivalSpeed="10.91" duration="2955.00" routeLength="5732.03" waitingTime="200.00" waitingCount="9" stopTime="2182.00" timeLoss="289.23" rerouteNo="2" devices="vehroute_0 tripinfo_0 emissions_0" vType="vecType" speedFactor="1.06" vaporized="">
        <emissions CO_abs="53483.216684" CO2_abs="1962906.808927" HC_abs="288.599458" PMx_abs="34.292053" NOx_abs="798.988294" fuel_abs="626092.439651" electricity_abs="0"/>
    </tripinfo>
    <tripinfo id="108" depart="18180.00" departLane="8916792_0" departPos="5.10" departSpeed="0.00" departDelay="0.00" arrival="21038.00" arrivalLane="8916792_0" arrivalPos="615.11" arrivalSpeed="11.53" duration="2858.00" routeLength="8924.09" waitingTime="502.00" waitingCount="19" stopTime="1459.00" timeLoss="648.45" rerouteNo="2" devices="vehroute_108 tripinfo_108 emissions_108" vType="vecType" speedFactor="1.06" vaporized="">
        <emissions CO_abs="115622.553448" CO2_abs="3540782.846377" HC_abs="607.923023" PMx_abs="65.854597" NOx_abs="1467.844825" fuel_abs="1129382.293657" electricity_abs="0"/>
    </tripinfo>
    <tripinfo id="95" depart="18180.00" departLane="123867455_0" departPos="5.10" departSpeed="0.00" departDelay="0.00" arrival="21041.00" arrivalLane="123867455_0" arrivalPos="904.85" arrivalSpeed="29.94" duration="2861.00" routeLength="8308.19" waitingTime="469.00" waitingCount="15" stopTime="1704.00" timeLoss="600.09" rerouteNo="1" devices="vehroute_95 tripinfo_95 emissions_95" vType="vecType" speedFactor="1.06" vaporized="">
        <emissions CO_abs="114038.218641" CO2_abs="3543606.155376" HC_abs="602.953474" PMx_abs="72.505574" NOx_abs="1478.539572" fuel_abs="1130276.831594" electricity_abs="0"/>
    </tripinfo>
    <tripinfo id="79" depart="18120.00" departLane="-24310636#2_0" departPos="5.10" departSpeed="0.00" departDelay="0.00" arrival="21042.00" arrivalLane="-24310636#2_1" arrivalPos="108.36" arrivalSpeed="11.75" duration="2922.00" routeLength="6581.41" waitingTime="226.00" waitingCount="8" stopTime="2107.00" timeLoss="323.99" rerouteNo="1" devices="vehroute_79 tripinfo_79 emissions_79" vType="vecType" speedFactor="1.09" vaporized="">
        <emissions CO_abs="62098.425181" CO2_abs="2334697.505088" HC_abs="336.812250" PMx_abs="43.452620" NOx_abs="957.837199" fuel_abs="744676.126591" electricity_abs="0"/>
    </tripinfo>
    <tripinfo id="101" depart="18180.00" departLane="224384035#0_0" departPos="5.10" departSpeed="0.00" departDelay="0.00" arrival="21084.00" arrivalLane="224384035#0_0" arrivalPos="123.84" arrivalSpeed="9.42" duration="2904.00" routeLength="6976.02" waitingTime="337.00" waitingCount="14" stopTime="1797.00" timeLoss="458.81" rerouteNo="1" devices="vehroute_101 tripinfo_101 emissions_101" vType="vecType" speedFactor="0.96" vaporized="">
        <emissions CO_abs="85373.182638" CO2_abs="2697169.754333" HC_abs="450.944966" PMx_abs="48.936051" NOx_abs="1115.258487" fuel_abs="860299.344111" electricity_abs="0"/>
    </tripinfo>
    <tripinfo id="172" depart="18540.00" departLane="-35977367#1_0" departPos="5.10" departSpeed="0.00" departDelay="0.00" arrival="21113.00" arrivalLane="-35977367#1_0" arrivalPos="147.29" arrivalSpeed="11.90" duration="2573.00" routeLength="6028.88" waitingTime="270.00" waitingCount="10" stopTime="1693.00" timeLoss="376.19" rerouteNo="1" devices="vehroute_172 tripinfo_172 emissions_172" vType="vecType" speedFactor="1.07" vaporized="">
        <emissions CO_abs="69060.646364" CO2_abs="2324895.645129" HC_abs="368.070266" PMx_abs="42.965144" NOx_abs="962.746890" fuel_abs="741553.922373" electricity_abs="0"/>
    </tripinfo>
    <tripinfo id="230" depart="19140.00" departLane="133733582#2_0" departPos="5.10" departSpeed="0.00" departDelay="0.00" arrival="21196.00" arrivalLane="133733582#2_0" arrivalPos="149.99" arrivalSpeed="10.32" duration="2056.00" routeLength="6535.79" waitingTime="333.00" waitingCount="14" stopTime="1058.00" timeLoss="457.84" rerouteNo="1" devices="vehroute_230 tripinfo_230 emissions_230" vType="vecType" speedFactor="0.98" vaporized="">
        <emissions CO_abs="84485.951684" CO2_abs="2649809.991740" HC_abs="446.042797" PMx_abs="50.709495" NOx_abs="1103.374818" fuel_abs="845191.248901" electricity_abs="0"/>
    </tripinfo>
    <tripinfo id="46" depart="18060.00" departLane="27388400#0_0" departPos="5.10" departSpeed="0.00" departDelay="0.00" arrival="21200.00" arrivalLane="27388400#0_0" arrivalPos="194.01" arrivalSpeed="10.41" duration="3140.00" routeLength="10363.42" waitingTime="723.00" waitingCount="22" stopTime="1293.00" timeLoss="903.86" rerouteNo="1" devices="vehroute_46 tripinfo_46 emissions_46" vType="vecType" speedFactor="1.00" vaporized="">
        <emissions CO_abs="161668.300384" CO2_abs="4533933.184274" HC_abs="841.036618" PMx_abs="86.252515" NOx_abs="1898.015297" fuel_abs="1446167.531195" electricity_abs="0"/>
    </tripinfo>
    <tripinfo id="94" depart="18120.00" departLane="254758124#0_0" departPos="5.10" departSpeed="0.00" departDelay="0.00" arrival="21206.00" arrivalLane="254758124#0_1" arrivalPos="106.41" arrivalSpeed="11.77" duration="3086.00" routeLength="12338.45" waitingTime="414.00" waitingCount="16" stopTime="1886.00" timeLoss="557.42" rerouteNo="2" devices="vehroute_94 tripinfo_94 emissions_94" vType="vecType" speedFactor="1.09" vaporized="">
        <emissions CO_abs="120490.578230" CO2_abs="4234722.120470" HC_abs="650.310599" PMx_abs="90.370439" NOx_abs="1732.397684" fuel_abs="1350706.918396" electricity_abs="0"/>
    </tripinfo>
    <tripinfo id="24" depart="18003.00" departLane="123867455_0" departPos="5.10" departSpeed="0.00" departDelay="3.00" arrival="21290.00" arrivalLane="123867455_0" arrivalPos="904.85" arrivalSpeed="23.00" duration="3287.00" routeLength="6219.34" waitingTime="259.00" waitingCount="11" stopTime="2399.00" timeLoss="370.25" rerouteNo="2" devices="vehroute_24 tripinfo_24 emissions_24" vType="vecType" speedFactor="0.83" vaporized="">
        <emissions CO_abs="74754.590289" CO2_abs="2393910.458938" HC_abs="395.687991" PMx_abs="46.296936" NOx_abs="987.827179" fuel_abs="763568.089563" electricity_abs="0"/>
    </tripinfo>
    <tripinfo id="241" depart="19440.00" departLane="288065247#6_0" departPos="5.10" departSpeed="0.00" departDelay="0.00" arrival="21393.00" arrivalLane="288065247#6_0" arrivalPos="102.86" arrivalSpeed="12.22" duration="1953.00" routeLength="1946.33" waitingTime="31.00" waitingCount="1" stopTime="1744.00" timeLoss="57.33" rerouteNo="2" devices="vehroute_241 tripinfo_241 emissions_241" vType="vecType" speedFactor="1.14" vaporized="">
        <emissions CO_abs="11924.491426" CO2_abs="581819.787113" HC_abs="67.544282" PMx_abs="9.933623" NOx_abs="234.148515" fuel_abs="185576.141258" electricity_abs="0"/>
    </tripinfo>
    <tripinfo id="52" depart="18060.00" departLane="30029172#0_0" departPos="5.10" departSpeed="0.00" departDelay="0.00" arrival="21465.00" arrivalLane="30029172#0_0" arrivalPos="147.16" arrivalSpeed="10.48" duration="3405.00" routeLength="8434.59" waitingTime="306.00" waitingCount="9" stopTime="2357.00" timeLoss="412.97" rerouteNo="2" devices="vehroute_52 tripinfo_52 emissions_52" vType="vecType" speedFactor="1.02" vaporized="">
        <emissions CO_abs="80853.516123" CO2_abs="2941187.050279" HC_abs="436.463179" PMx_abs="55.039696" NOx_abs="1204.468499" fuel_abs="938123.997903" electricity_abs="0"/>
    </tripinfo>
    <tripinfo id="273" depart="19503.00" departLane="31129765_0" departPos="5.10" departSpeed="0.00" departDelay="3.00" arrival="21532.00" arrivalLane="31129765_0" arrivalPos="639.51" arrivalSpeed="23.41" duration="2029.00" routeLength="5865.76" waitingTime="155.00" waitingCount="6" stopTime="1486.00" timeLoss="225.30" rerouteNo="1" devices="vehroute_273 tripinfo_273 emissions_273" vType="vecType" speedFactor="1.07" vaporized="">
        <emissions CO_abs="48041.716369" CO2_abs="1944582.775765" HC_abs="264.855105" PMx_abs="39.597579" NOx_abs="789.249182" fuel_abs="620241.062218" electricity_abs="0"/>
    </tripinfo>
    <tripinfo id="220" depart="19020.00" departLane="-204967525_0" departPos="5.10" departSpeed="0.00" departDelay="0.00" arrival="21535.00" arrivalLane="-204967525_1" arrivalPos="146.26" arrivalSpeed="13.20" duration="2515.00" routeLength="7152.21" waitingTime="409.00" waitingCount="17" stopTime="1403.00" timeLoss="571.76" rerouteNo="1" devices="vehroute_220 tripinfo_220 emissions_220" vType="vecType" speedFactor="1.18" vaporized="">
        <emissions CO_abs="98044.606682" CO2_abs="3058228.049391" HC_abs="516.103964" PMx_abs="59.286049" NOx_abs="1281.993040" fuel_abs="975460.642865" electricity_abs="0"/>
    </tripinfo>
    <tripinfo id="154" depart="18480.00" departLane="-27570786#2_0" departPos="5.10" departSpeed="0.00" departDelay="0.00" arrival="21541.00" arrivalLane="-27570786#2_0" arrivalPos="88.50" arrivalSpeed="12.04" duration="3061.00" routeLength="5558.23" waitingTime="217.00" waitingCount="9" stopTime="2291.00" timeLoss="308.70" rerouteNo="1" devices="vehroute_154 tripinfo_154 emissions_154" vType="vecType" speedFactor="1.08" vaporized="">
        <emissions CO_abs="56128.567329" CO2_abs="1999872.990343" HC_abs="301.497613" PMx_abs="35.769742" NOx_abs="819.135159" fuel_abs="637883.346940" electricity_abs="0"/>
    </tripinfo>
    <tripinfo id="171" depart="18540.00" departLane="123867455_0" departPos="5.10" departSpeed="0.00" departDelay="0.00" arrival="21574.00" arrivalLane="123867455_0" arrivalPos="904.85" arrivalSpeed="31.09" duration="3034.00" routeLength="6303.61" waitingTime="230.00" waitingCount="10" stopTime="2347.00" timeLoss="318.46" rerouteNo="1" devices="vehroute_171 tripinfo_171 emissions_171" vType="vecType" speedFactor="1.11" vaporized="">
        <emissions CO_abs="66938.068274" CO2_abs="2403871.854124" HC_abs="361.803179" PMx_abs="50.160576" NOx_abs="995.415346" fuel_abs="766737.825601" electricity_abs="0"/>
    </tripinfo>
    <tripinfo id="85" depart="18126.00" departLane="90077241_0" departPos="5.10" departSpeed="0.00" departDelay="6.00" arrival="21586.00" arrivalLane="90077241_0" arrivalPos="3225.35" arrivalSpeed="27.84" duration="3460.00" routeLength="11984.76" waitingTime="96.00" waitingCount="5" stopTime="2772.00" timeLoss="158.51" rerouteNo="1" devices="vehroute_85 tripinfo_85 emissions_85" vType="vecType" speedFactor="0.98" vaporized="">
        <emissions CO_abs="51208.066304" CO2_abs="2887869.573375" HC_abs="302.621521" PMx_abs="58.998559" NOx_abs="1105.181706" fuel_abs="921102.463320" electricity_abs="0"/>
    </tripinfo>
    <tripinfo id="68" depart="18060.00" departLane="27167762_0" departPos="5.10" departSpeed="0.00" departDelay="0.00" arrival="21590.00" arrivalLane="27167762_0" arrivalPos="139.02" arrivalSpeed="22.97" duration="3530.00" routeLength="5366.29" waitingTime="165.00" waitingCount="7" stopTime="2930.00" timeLoss="248.99" rerouteNo="1" devices="vehroute_68 tripinfo_68 emissions_68" vType="vecType" speedFactor="1.04" vaporized="">
        <emissions CO_abs="50509.000367" CO2_abs="1970064.018966" HC_abs="276.170419" PMx_abs="38.498064" NOx_abs="809.350176" fuel_abs="628370.027628" electricity_abs="0"/>
    </tripinfo>
    <tripinfo id="212" depart="18963.00" departLane="-144346316#5_0" departPos="5.10" departSpeed="0.00" departDelay="3.00" arrival="21674.00" arrivalLane="-144346316#5_0" arrivalPos="145.14" arrivalSpeed="10.22" duration="2711.00" routeLength="7064.96" waitingTime="441.00" waitingCount="19" stopTime="1423.00" timeLoss="606.78" rerouteNo="2" devices="vehroute_212 tripinfo_212 emissions_212" vType="vecType" speedFactor="0.93" vaporized="">
        <emissions CO_abs="109724.608031" CO2_abs="3119683.080365" HC_abs="571.838282" PMx_abs="59.572459" NOx_abs="1312.361385" fuel_abs="995069.127867" electricity_abs="0"/>
    </tripinfo>
    <tripinfo id="236" depart="19260.00" departLane="8916767#0_0" departPos="5.10" departSpeed="0.00" departDelay="0.00" arrival="21698.00" arrivalLane="8916767#0_0" arrivalPos="129.66" arrivalSpeed="12.22" duration="2438.00" routeLength="7234.23" waitingTime="374.00" waitingCount="15" stopTime="1362.00" timeLoss="507.92" rerouteNo="1" devices="vehroute_236 tripinfo_236 emissions_236" vType="vecType" speedFactor="1.14" vaporized="">
        <emissions CO_abs="90164.869429" CO2_abs="2924616.289907" HC_abs="477.360085" PMx_abs="55.450788" NOx_abs="1217.522594" fuel_abs="932842.739163" electricity_abs="0"/>
    </tripinfo>
    <tripinfo id="200" depart="18960.00" departLane="-288065247#1_0" departPos="5.10" departSpeed="0.00" departDelay="0.00" arrival="21811.00" arrivalLane="-288065247#1_0" arrivalPos="100.84" arrivalSpeed="10.11" duration="2851.00" routeLength="5293.24" waitingTime="342.00" waitingCount="15" stopTime="1916.00" timeLoss="456.81" rerouteNo="1" devices="vehroute_200 tripinfo_200 emissions_200" vType="vecType" speedFactor="0.99" vaporized="">
        <emissions CO_abs="82507.714613" CO2_abs="2405432.222477" HC_abs="431.556634" PMx_abs="46.423565" NOx_abs="1013.111605" fuel_abs="767246.512736" electricity_abs="0"/>
    </tripinfo>
    <tripinfo id="226" depart="19020.00" departLane="31129765_0" departPos="5.10" departSpeed="0.00" departDelay="0.00" arrival="21876.00" arrivalLane="31129765_1" arrivalPos="639.51" arrivalSpeed="24.60" duration="2856.00" routeLength="7718.23" waitingTime="288.00" waitingCount="10" stopTime="2004.00" timeLoss="393.43" rerouteNo="2" devices="vehroute_226 tripinfo_226 emissions_226" vType="vecType" speedFactor="1.11" vaporized="">
        <emissions CO_abs="80360.209187" CO2_abs="2884982.297158" HC_abs="433.983291" PMx_abs="59.103893" NOx_abs="1191.232736" fuel_abs="920193.476406" electricity_abs="0"/>
    </tripinfo>
    <tripinfo id="169" depart="18540.00" departLane="-27029200#2_0" departPos="5.10" departSpeed="0.00" departDelay="0.00" arrival="21898.00" arrivalLane="-27029200#2_0" arrivalPos="66.62" arrivalSpeed="8.61" duration="3358.00" routeLength="7452.24" waitingTime="398.00" waitingCount="16" stopTime="2114.00" timeLoss="545.35" rerouteNo="2" devices="vehroute_169 tripinfo_169 emissions_169" vType="vecType" speedFactor="0.87" vaporized="">
        <emissions CO_abs="102647.849568" CO2_abs="3062661.704695" HC_abs="537.682966" PMx_abs="57.093923" NOx_abs="1272.598235" fuel_abs="976879.995669" electricity_abs="0"/>
    </tripinfo>
    <tripinfo id="77" depart="18120.00" departLane="90077241_0" departPos="5.10" departSpeed="0.00" departDelay="0.00" arrival="21901.00" arrivalLane="90077241_0" arrivalPos="3225.35" arrivalSpeed="27.96" duration="3781.00" routeLength="11810.95" waitingTime="60.00" waitingCount="4" stopTime="3151.00" timeLoss="120.25" rerouteNo="1" devices="vehroute_77 tripinfo_77 emissions_77" vType="vecType" speedFactor="0.98" vaporized="">
        <emissions CO_abs="45887.932069" CO2_abs="2787382.142669" HC_abs="276.525721" PMx_abs="57.201529" NOx_abs="1064.682903" fuel_abs="889049.221974" electricity_abs="0"/>
    </tripinfo>
    <tripinfo id="127" depart="18240.00" departLane="-204967525_0" departPos="5.10" departSpeed="0.00" departDelay="0.00" arrival="21905.00" arrivalLane="-204967525_0" arrivalPos="146.26" arrivalSpeed="8.48" duration="3665.00" routeLength="5247.72" waitingTime="123.00" waitingCount="9" stopTime="2884.00" timeLoss="210.04" rerouteNo="1" devices="vehroute_127 tripinfo_127 emissions_127" vType="vecType" speedFactor="0.82" vaporized="">