<?xml version="1.0" encoding="UTF-8"?>

<!-- generated on 2022-12-17 16:38:35 by Eclipse SUMO sumo Version 1.14.1
<configuration xmlns:xsi="http://www.w3.org/2001/XMLSchema-instance" xsi:noNamespaceSchemaLocation="http://sumo.dlr.de/xsd/sumoConfiguration.xsd">

    <input>
        <net-file value="./strategia2_config/../san_francisco.net.xml"/>
        <route-files value="./strategia2_config/../san_francisco.rou.xml"/>
        <additional-files value="./strategia2_config/../san_francisco.poly.xml,./strategia2_config/../parking_capacity_100%25/off_parking_100%25.add.xml,./strategia2_config/../parking_capacity_100%25/on_parking_100%25.add.xml"/>
    </input>

    <output>
        <emission-output value="./strategia2_config/../output/strategia2/100%25/emissions.xml"/>
        <tripinfo-output value="./strategia2_config/../output/strategia2/100%25/tripinfo.xml"/>
        <vehroute-output value="./strategia2_config/../output/strategia2/100%25/vehroute.xml"/>
        <stop-output value="./strategia2_config/../output/strategia2/100%25/stops.xml"/>
        <collision-output value="./strategia2_config/../output/strategia2/100%25/collision.xml"/>
        <statistic-output value="./strategia2_config/../output/strategia2/100%25/statistic.xml"/>
    </output>

    <time>
        <step-length value="1"/>
    </time>

    <processing>
        <ignore-route-errors value="false"/>
        <time-to-teleport value="-1"/>
    </processing>

    <report>
        <verbose value="true"/>
        <xml-validation value="never"/>
    </report>

    <traci_server>
        <remote-port value="64425"/>
    </traci_server>

    <gui_only>
        <gui-settings-file value="./strategia2_config/../gui-settings.cfg"/>
        <start value="true"/>
    </gui_only>

</configuration>
-->

<tripinfos xmlns:xsi="http://www.w3.org/2001/XMLSchema-instance" xsi:noNamespaceSchemaLocation="http://sumo.dlr.de/xsd/tripinfo_file.xsd">
    <tripinfo id="30" depart="18000.00" departLane="-91181760#0_0" departPos="5.10" departSpeed="0.00" departDelay="0.00" arrival="18332.00" arrivalLane="-91181760#0_0" arrivalPos="79.70" arrivalSpeed="12.85" duration="332.00" routeLength="3660.42" waitingTime="2.00" waitingCount="2" stopTime="3.00" timeLoss="51.10" rerouteNo="1" devices="vehroute_30 tripinfo_30 emissions_30" vType="vecType" speedFactor="1.18" vaporized="">
        <emissions CO_abs="13149.633233" CO2_abs="979572.330774" HC_abs="82.046426" PMx_abs="15.814851" NOx_abs="387.643098" fuel_abs="312439.213114" electricity_abs="0"/>
    </tripinfo>
    <tripinfo id="1" depart="18000.00" departLane="31129765_0" departPos="5.10" departSpeed="0.00" departDelay="0.00" arrival="18354.00" arrivalLane="31129765_0" arrivalPos="639.51" arrivalSpeed="20.01" duration="354.00" routeLength="4341.32" waitingTime="38.00" waitingCount="2" stopTime="3.00" timeLoss="83.17" rerouteNo="1" devices="vehroute_1 tripinfo_1 emissions_1" vType="vecType" speedFactor="0.94" vaporized="">
        <emissions CO_abs="21416.560208" CO2_abs="1209016.456758" HC_abs="125.171466" PMx_abs="22.114859" NOx_abs="480.204260" fuel_abs="385622.780117" electricity_abs="0"/>
    </tripinfo>
    <tripinfo id="45" depart="18060.00" departLane="31129765_0" departPos="5.10" departSpeed="0.00" departDelay="0.00" arrival="18368.00" arrivalLane="31129765_0" arrivalPos="639.51" arrivalSpeed="23.80" duration="308.00" routeLength="4234.28" waitingTime="37.00" waitingCount="1" stopTime="3.00" timeLoss="82.30" rerouteNo="1" devices="vehroute_45 tripinfo_45 emissions_45" vType="vecType" speedFactor="1.09" vaporized="">
        <emissions CO_abs="22740.435286" CO2_abs="1281728.792767" HC_abs="133.828542" PMx_abs="25.471571" NOx_abs="516.009044" fuel_abs="408813.182758" electricity_abs="0"/>
    </tripinfo>
    <tripinfo id="21" depart="18000.00" departLane="27167762_0" departPos="5.10" departSpeed="0.00" departDelay="0.00" arrival="18622.00" arrivalLane="27167762_0" arrivalPos="139.02" arrivalSpeed="21.85" duration="622.00" routeLength="5420.07" waitingTime="171.00" waitingCount="7" stopTime="3.00" timeLoss="252.69" rerouteNo="2" devices="vehroute_21 tripinfo_21 emissions_21" vType="vecType" speedFactor="1.01" vaporized="">
        <emissions CO_abs="52384.662781" CO2_abs="1991621.180289" HC_abs="285.427206" PMx_abs="39.034373" NOx_abs="821.444247" fuel_abs="635246.479743" electricity_abs="0"/>
    </tripinfo>
    <tripinfo id="10" depart="18000.00" departLane="90077241_0" departPos="5.10" departSpeed="0.00" departDelay="0.00" arrival="18640.00" arrivalLane="90077241_0" arrivalPos="3225.35" arrivalSpeed="30.48" duration="640.00" routeLength="11810.95" waitingTime="102.00" waitingCount="4" stopTime="3.00" timeLoss="178.69" rerouteNo="2" devices="vehroute_10 tripinfo_10 emissions_10" vType="vecType" speedFactor="1.09" vaporized="">
        <emissions CO_abs="64279.593904" CO2_abs="3137283.414154" HC_abs="370.412832" PMx_abs="70.013475" NOx_abs="1232.622352" fuel_abs="1000653.957035" electricity_abs="0"/>
    </tripinfo>
    <tripinfo id="49" depart="18063.00" departLane="31129765_0" departPos="5.10" departSpeed="0.00" departDelay="3.00" arrival="18647.00" arrivalLane="31129765_0" arrivalPos="639.51" arrivalSpeed="18.59" duration="584.00" routeLength="12944.78" waitingTime="0.00" waitingCount="0" stopTime="3.00" timeLoss="34.60" rerouteNo="1" devices="vehroute_49 tripinfo_49 emissions_49" vType="vecType" speedFactor="0.85" vaporized="">
        <emissions CO_abs="22677.807713" CO2_abs="2466563.697819" HC_abs="159.129737" PMx_abs="44.810023" NOx_abs="896.206230" fuel_abs="786717.345485" electricity_abs="0"/>
    </tripinfo>
    <tripinfo id="16" depart="18006.00" departLane="90077241_0" departPos="5.10" departSpeed="0.00" departDelay="6.00" arrival="18688.00" arrivalLane="90077241_0" arrivalPos="3225.35" arrivalSpeed="24.26" duration="682.00" routeLength="11625.26" waitingTime="101.00" waitingCount="3" stopTime="3.00" timeLoss="154.82" rerouteNo="1" devices="vehroute_16 tripinfo_16 emissions_16" vType="vecType" speedFactor="0.88" vaporized="">
        <emissions CO_abs="44173.432369" CO2_abs="2707823.179329" HC_abs="263.188885" PMx_abs="52.002980" NOx_abs="1024.205795" fuel_abs="863675.418266" electricity_abs="0"/>
    </tripinfo>
    <tripinfo id="28" depart="18009.00" departLane="90077241_0" departPos="5.10" departSpeed="0.00" departDelay="9.00" arrival="18690.00" arrivalLane="90077241_1" arrivalPos="3225.35" arrivalSpeed="32.85" duration="681.00" routeLength="12386.24" waitingTime="148.00" waitingCount="4" stopTime="3.00" timeLoss="210.79" rerouteNo="3" devices="vehroute_28 tripinfo_28 emissions_28" vType="vecType" speedFactor="1.13" vaporized="">
        <emissions CO_abs="76512.283839" CO2_abs="3472800.236449" HC_abs="434.988311" PMx_abs="79.520340" NOx_abs="1371.547373" fuel_abs="1107670.588574" electricity_abs="0"/>
    </tripinfo>
    <tripinfo id="36" depart="18009.00" departLane="123867455_0" departPos="5.10" departSpeed="0.00" departDelay="9.00" arrival="18703.00" arrivalLane="123867455_0" arrivalPos="904.85" arrivalSpeed="27.89" duration="694.00" routeLength="5901.75" waitingTime="222.00" waitingCount="7" stopTime="3.00" timeLoss="307.48" rerouteNo="2" devices="vehroute_36 tripinfo_36 emissions_36" vType="vecType" speedFactor="0.97" vaporized="">
        <emissions CO_abs="61526.046545" CO2_abs="2132453.903558" HC_abs="330.509307" PMx_abs="42.821086" NOx_abs="878.766333" fuel_abs="680169.230075" electricity_abs="0"/>
    </tripinfo>
    <tripinfo id="31" depart="18006.00" departLane="123867455_0" departPos="5.10" departSpeed="0.00" departDelay="6.00" arrival="18711.00" arrivalLane="123867455_0" arrivalPos="904.85" arrivalSpeed="32.73" duration="705.00" routeLength="7632.90" waitingTime="121.00" waitingCount="8" stopTime="3.00" timeLoss="237.58" rerouteNo="1" devices="vehroute_31 tripinfo_31 emissions_31" vType="vecType" speedFactor="1.15" vaporized="">
        <emissions CO_abs="50124.383360" CO2_abs="2365808.923325" HC_abs="283.302306" PMx_abs="45.151104" NOx_abs="957.687133" fuel_abs="754591.555456" electricity_abs="0"/>
    </tripinfo>
    <tripinfo id="13" depart="18003.00" departLane="90077241_0" departPos="5.10" departSpeed="0.00" departDelay="3.00" arrival="18747.00" arrivalLane="90077241_0" arrivalPos="3225.35" arrivalSpeed="31.94" duration="744.00" routeLength="12752.38" waitingTime="148.00" waitingCount="6" stopTime="3.00" timeLoss="220.84" rerouteNo="1" devices="vehroute_13 tripinfo_13 emissions_13" vType="vecType" speedFactor="1.12" vaporized="">
        <emissions CO_abs="76121.561057" CO2_abs="3488017.229815" HC_abs="433.039601" PMx_abs="78.195251" NOx_abs="1371.889872" fuel_abs="1112525.127376" electricity_abs="0"/>
    </tripinfo>
    <tripinfo id="15" depart="18000.00" departLane="-24310636#2_0" departPos="5.10" departSpeed="0.00" departDelay="0.00" arrival="18755.00" arrivalLane="-24310636#2_1" arrivalPos="108.36" arrivalSpeed="10.30" duration="755.00" routeLength="6010.81" waitingTime="145.00" waitingCount="9" stopTime="4.00" timeLoss="229.81" rerouteNo="1" devices="vehroute_15 tripinfo_15 emissions_15" vType="vecType" speedFactor="0.93" vaporized="">
        <emissions CO_abs="48426.041767" CO2_abs="1913023.563536" HC_abs="264.523312" PMx_abs="33.483069" NOx_abs="776.444157" fuel_abs="610179.247431" electricity_abs="0"/>
    </tripinfo>
    <tripinfo id="39" depart="18006.00" departLane="31129765_0" departPos="5.10" departSpeed="0.00" departDelay="6.00" arrival="18758.00" arrivalLane="31129765_0" arrivalPos="639.51" arrivalSpeed="19.69" duration="752.00" routeLength="6533.65" waitingTime="230.00" waitingCount="8" stopTime="3.00" timeLoss="305.71" rerouteNo="3" devices="vehroute_39 tripinfo_39 emissions_39" vType="vecType" speedFactor="0.90" vaporized="">
        <emissions CO_abs="61266.101221" CO2_abs="2229495.328418" HC_abs="329.937786" PMx_abs="42.543672" NOx_abs="906.581305" fuel_abs="711121.700150" electricity_abs="0"/>
    </tripinfo>
    <tripinfo id="47" depart="18060.00" departLane="90077241_0" departPos="5.10" departSpeed="0.00" departDelay="0.00" arrival="18778.00" arrivalLane="90077241_0" arrivalPos="3225.35" arrivalSpeed="25.11" duration="718.00" routeLength="11998.80" waitingTime="80.00" waitingCount="3" stopTime="3.00" timeLoss="136.97" rerouteNo="2" devices="vehroute_47 tripinfo_47 emissions_47" vType="vecType" speedFactor="0.90" vaporized="">
        <emissions CO_abs="43789.230460" CO2_abs="2717463.625022" HC_abs="262.385804" PMx_abs="52.113904" NOx_abs="1031.454076" fuel_abs="866750.057797" electricity_abs="0"/>
    </tripinfo>
    <tripinfo id="33" depart="18000.00" departLane="144489137#0_0" departPos="5.10" departSpeed="0.00" departDelay="0.00" arrival="18781.00" arrivalLane="144489137#0_0" arrivalPos="135.49" arrivalSpeed="12.37" duration="781.00" routeLength="3872.00" waitingTime="386.00" waitingCount="14" stopTime="3.00" timeLoss="484.59" rerouteNo="1" devices="vehroute_33 tripinfo_33 emissions_33" vType="vecType" speedFactor="1.17" vaporized="">
        <emissions CO_abs="82795.047452" CO2_abs="2159558.353313" HC_abs="426.416844" PMx_abs="44.446114" NOx_abs="922.675746" fuel_abs="688824.205816" electricity_abs="0"/>
    </tripinfo>
    <tripinfo id="27" depart="18000.00" departLane="-8916048_0" departPos="5.10" departSpeed="0.00" departDelay="0.00" arrival="18794.00" arrivalLane="-8916048_0" arrivalPos="126.72" arrivalSpeed="9.50" duration="794.00" routeLength="6742.86" waitingTime="121.00" waitingCount="3" stopTime="3.00" timeLoss="213.02" rerouteNo="1" devices="vehroute_27 tripinfo_27 emissions_27" vType="vecType" speedFactor="0.95" vaporized="">
        <emissions CO_abs="45475.643296" CO2_abs="2010414.786117" HC_abs="253.131702" PMx_abs="33.557625" NOx_abs="803.727015" fuel_abs="641241.726804" electricity_abs="0"/>
    </tripinfo>
    <tripinfo id="0" depart="18000.00" departLane="84823308_0" departPos="5.10" departSpeed="0.00" departDelay="0.00" arrival="18795.00" arrivalLane="84823308_0" arrivalPos="275.63" arrivalSpeed="10.93" duration="795.00" routeLength="5732.03" waitingTime="216.00" waitingCount="8" stopTime="3.00" timeLoss="308.19" rerouteNo="2" devices="vehroute_0 tripinfo_0 emissions_0" vType="vecType" speedFactor="1.06" vaporized="">
        <emissions CO_abs="57022.111046" CO2_abs="2038355.424905" HC_abs="306.503706" PMx_abs="36.215680" NOx_abs="833.960341" fuel_abs="650157.898953" electricity_abs="0"/>
    </tripinfo>
    <tripinfo id="40" depart="18000.00" departLane="-206679802#4_0" departPos="5.10" departSpeed="0.00" departDelay="0.00" arrival="18826.00" arrivalLane="-206679802#4_0" arrivalPos="292.11" arrivalSpeed="11.45" duration="826.00" routeLength="6024.23" waitingTime="211.00" waitingCount="8" stopTime="3.00" timeLoss="301.22" rerouteNo="2" devices="vehroute_40 tripinfo_40 emissions_40" vType="vecType" speedFactor="1.03" vaporized="">
        <emissions CO_abs="57376.543242" CO2_abs="2120806.502509" HC_abs="310.149287" PMx_abs="37.183267" NOx_abs="865.169728" fuel_abs="676455.954649" electricity_abs="0"/>
    </tripinfo>
    <tripinfo id="9" depart="18000.00" departLane="23959829#0_0" departPos="5.10" departSpeed="0.00" departDelay="0.00" arrival="18876.00" arrivalLane="23959829#0_0" arrivalPos="45.86" arrivalSpeed="8.62" duration="876.00" routeLength="6745.88" waitingTime="140.00" waitingCount="7" stopTime="3.00" timeLoss="233.21" rerouteNo="2" devices="vehroute_9 tripinfo_9 emissions_9" vType="vecType" speedFactor="0.86" vaporized="">
        <emissions CO_abs="51746.865594" CO2_abs="2079477.490456" HC_abs="283.005803" PMx_abs="34.384641" NOx_abs="834.648223" fuel_abs="663272.893913" electricity_abs="0"/>
    </tripinfo>
    <tripinfo id="12" depart="18000.00" departLane="-23883761_0" departPos="5.10" departSpeed="0.00" departDelay="0.00" arrival="18884.00" arrivalLane="-23883761_0" arrivalPos="197.88" arrivalSpeed="11.69" duration="884.00" routeLength="5849.00" waitingTime="269.00" waitingCount="12" stopTime="3.00" timeLoss="381.07" rerouteNo="2" devices="vehroute_12 tripinfo_12 emissions_12" vType="vecType" speedFactor="1.05" vaporized="">
        <emissions CO_abs="69257.992578" CO2_abs="2277828.182436" HC_abs="367.932433" PMx_abs="41.875524" NOx_abs="942.655042" fuel_abs="726542.411204" electricity_abs="0"/>
    </tripinfo>
    <tripinfo id="42" depart="18009.00" departLane="31129765_0" departPos="5.10" departSpeed="0.00" departDelay="9.00" arrival="18891.00" arrivalLane="31129765_0" arrivalPos="639.51" arrivalSpeed="23.77" duration="882.00" routeLength="7763.38" waitingTime="301.00" waitingCount="11" stopTime="3.00" timeLoss="410.75" rerouteNo="1" devices="vehroute_42 tripinfo_42 emissions_42" vType="vecType" speedFactor="1.09" vaporized="">
        <emissions CO_abs="81761.190657" CO2_abs="2893788.569006" HC_abs="440.423273" PMx_abs="58.933119" NOx_abs="1198.272976" fuel_abs="923002.998420" electricity_abs="0"/>
    </tripinfo>
    <tripinfo id="29" depart="18000.00" departLane="-35977367#2_0" departPos="5.10" departSpeed="0.00" departDelay="0.00" arrival="18894.00" arrivalLane="-35977367#2_0" arrivalPos="431.73" arrivalSpeed="9.97" duration="894.00" routeLength="6070.29" waitingTime="216.00" waitingCount="8" stopTime="3.00" timeLoss="307.29" rerouteNo="2" devices="vehroute_29 tripinfo_29 emissions_29" vType="vecType" speedFactor="0.93" vaporized="">
        <emissions CO_abs="60654.972880" CO2_abs="2114426.500863" HC_abs="324.806001" PMx_abs="36.409365" NOx_abs="862.509123" fuel_abs="674423.547364" electricity_abs="0"/>
    </tripinfo>
    <tripinfo id="20" depart="18000.00" departLane="123867455_0" departPos="5.10" departSpeed="0.00" departDelay="0.00" arrival="18926.00" arrivalLane="123867455_0" arrivalPos="904.85" arrivalSpeed="29.12" duration="926.00" routeLength="7628.28" waitingTime="287.00" waitingCount="12" stopTime="3.00" timeLoss="404.69" rerouteNo="2" devices="vehroute_20 tripinfo_20 emissions_20" vType="vecType" speedFactor="1.02" vaporized="">
        <emissions CO_abs="80412.990316" CO2_abs="2821155.149100" HC_abs="432.677123" PMx_abs="55.645274" NOx_abs="1159.127644" fuel_abs="899838.285265" electricity_abs="0"/>
    </tripinfo>
    <tripinfo id="24" depart="18003.00" departLane="123867455_0" departPos="5.10" departSpeed="0.00" departDelay="3.00" arrival="18952.00" arrivalLane="123867455_0" arrivalPos="904.85" arrivalSpeed="23.37" duration="949.00" routeLength="6219.34" waitingTime="316.00" waitingCount="13" stopTime="3.00" timeLoss="427.79" rerouteNo="2" devices="vehroute_24 tripinfo_24 emissions_24" vType="vecType" speedFactor="0.83" vaporized="">
        <emissions CO_abs="84443.425486" CO2_abs="2542916.970287" HC_abs="443.161285" PMx_abs="50.283727" NOx_abs="1057.275609" fuel_abs="811097.362772" electricity_abs="0"/>
    </tripinfo>
    <tripinfo id="23" depart="18000.00" departLane="133733582#2_0" departPos="5.10" departSpeed="0.00" departDelay="0.00" arrival="18955.00" arrivalLane="133733582#2_0" arrivalPos="149.99" arrivalSpeed="8.79" duration="955.00" routeLength="6926.78" waitingTime="216.00" waitingCount="10" stopTime="3.00" timeLoss="318.11" rerouteNo="1" devices="vehroute_23 tripinfo_23 emissions_23" vType="vecType" speedFactor="0.89" vaporized="">
        <emissions CO_abs="64468.619787" CO2_abs="2333008.498724" HC_abs="347.006793" PMx_abs="40.607847" NOx_abs="948.159682" fuel_abs="744141.427948" electricity_abs="0"/>
    </tripinfo>
    <tripinfo id="43" depart="18012.00" departLane="123867455_0" departPos="5.10" departSpeed="0.00" departDelay="12.00" arrival="18955.00" arrivalLane="123867455_0" arrivalPos="904.85" arrivalSpeed="29.56" duration="943.00" routeLength="8280.56" waitingTime="234.00" waitingCount="11" stopTime="3.00" timeLoss="367.05" rerouteNo="2" devices="vehroute_43 tripinfo_43 emissions_43" vType="vecType" speedFactor="1.04" vaporized="">
        <emissions CO_abs="73184.325192" CO2_abs="2861283.392078" HC_abs="400.027343" PMx_abs="54.508837" NOx_abs="1167.861581" fuel_abs="912634.037665" electricity_abs="0"/>
    </tripinfo>
    <tripinfo id="3" depart="18000.00" departLane="-133781749_0" departPos="5.10" departSpeed="0.00" departDelay="0.00" arrival="18958.00" arrivalLane="-133781749_0" arrivalPos="138.68" arrivalSpeed="10.85" duration="958.00" routeLength="7501.04" waitingTime="265.00" waitingCount="13" stopTime="3.00" timeLoss="386.76" rerouteNo="1" devices="vehroute_3 tripinfo_3 emissions_3" vType="vecType" speedFactor="1.08" vaporized="">
        <emissions CO_abs="72832.474377" CO2_abs="2685819.926293" HC_abs="393.662637" PMx_abs="49.691606" NOx_abs="1102.299195" fuel_abs="856671.430454" electricity_abs="0"/>
    </tripinfo>
    <tripinfo id="41" depart="18003.00" departLane="144489137#0_0" departPos="5.10" departSpeed="0.00" departDelay="3.00" arrival="18974.00" arrivalLane="144489137#0_0" arrivalPos="135.49" arrivalSpeed="9.60" duration="971.00" routeLength="5119.82" waitingTime="384.00" waitingCount="15" stopTime="3.00" timeLoss="492.08" rerouteNo="1" devices="vehroute_41 tripinfo_41 emissions_41" vType="vecType" speedFactor="0.96" vaporized="">
        <emissions CO_abs="87815.968146" CO2_abs="2391384.547951" HC_abs="455.128064" PMx_abs="46.081424" NOx_abs="1006.596989" fuel_abs="762769.554501" electricity_abs="0"/>
    </tripinfo>
    <tripinfo id="34" depart="18000.00" departLane="-133755930#1_0" departPos="5.10" departSpeed="0.00" departDelay="0.00" arrival="19004.00" arrivalLane="-133755930#1_1" arrivalPos="16.00" arrivalSpeed="9.91" duration="1004.00" routeLength="4779.15" waitingTime="460.00" waitingCount="17" stopTime="3.00" timeLoss="571.28" rerouteNo="1" devices="vehroute_34 tripinfo_34 emissions_34" vType="vecType" speedFactor="0.99" vaporized="">
        <emissions CO_abs="100287.990799" CO2_abs="2546773.043584" HC_abs="515.847590" PMx_abs="51.431177" NOx_abs="1086.816583" fuel_abs="812334.834795" electricity_abs="0"/>
    </tripinfo>
    <tripinfo id="5" depart="18000.00" departLane="-23883760_0" departPos="5.10" departSpeed="0.00" departDelay="0.00" arrival="19022.00" arrivalLane="-23883760_0" arrivalPos="242.29" arrivalSpeed="8.06" duration="1022.00" routeLength="5984.65" waitingTime="282.00" waitingCount="8" stopTime="3.00" timeLoss="374.77" rerouteNo="1" devices="vehroute_5 tripinfo_5 emissions_5" vType="vecType" speedFactor="0.83" vaporized="">
        <emissions CO_abs="75353.993222" CO2_abs="2260718.805732" HC_abs="394.886999" PMx_abs="39.700279" NOx_abs="930.245578" fuel_abs="721090.906826" electricity_abs="0"/>
    </tripinfo>
    <tripinfo id="17" depart="18003.00" departLane="224384035#0_0" departPos="5.10" departSpeed="0.00" departDelay="3.00" arrival="19064.00" arrivalLane="224384035#0_0" arrivalPos="123.84" arrivalSpeed="9.46" duration="1061.00" routeLength="7142.89" waitingTime="257.00" waitingCount="14" stopTime="3.00" timeLoss="385.02" rerouteNo="1" devices="vehroute_17 tripinfo_17 emissions_17" vType="vecType" speedFactor="0.94" vaporized="">
        <emissions CO_abs="74342.595346" CO2_abs="2538975.731720" HC_abs="396.883887" PMx_abs="44.628708" NOx_abs="1041.097241" fuel_abs="809838.939870" electricity_abs="0"/>
    </tripinfo>
    <tripinfo id="7" depart="18000.00" departLane="224384035#0_0" departPos="5.10" departSpeed="0.00" departDelay="0.00" arrival="19075.00" arrivalLane="224384035#0_0" arrivalPos="123.84" arrivalSpeed="9.55" duration="1075.00" routeLength="6571.31" waitingTime="296.00" waitingCount="12" stopTime="3.00" timeLoss="412.79" rerouteNo="2" devices="vehroute_7 tripinfo_7 emissions_7" vType="vecType" speedFactor="0.89" vaporized="">
        <emissions CO_abs="80641.356673" CO2_abs="2559446.345082" HC_abs="426.128527" PMx_abs="45.792265" NOx_abs="1057.275272" fuel_abs="816370.816175" electricity_abs="0"/>
    </tripinfo>
    <tripinfo id="11" depart="18003.00" departLane="225806031#0_0" departPos="5.10" departSpeed="0.00" departDelay="3.00" arrival="19076.00" arrivalLane="225806031#0_0" arrivalPos="142.16" arrivalSpeed="10.50" duration="1073.00" routeLength="6601.75" waitingTime="366.00" waitingCount="17" stopTime="3.00" timeLoss="496.33" rerouteNo="2" devices="vehroute_11 tripinfo_11 emissions_11" vType="vecType" speedFactor="1.03" vaporized="">
        <emissions CO_abs="89230.978954" CO2_abs="2725170.707073" HC_abs="469.173820" PMx_abs="50.444456" NOx_abs="1129.873910" fuel_abs="869231.719435" electricity_abs="0"/>
    </tripinfo>
    <tripinfo id="37" depart="18003.00" departLane="27398045#1_0" departPos="5.10" departSpeed="0.00" departDelay="3.00" arrival="19087.00" arrivalLane="27398045#1_0" arrivalPos="122.17" arrivalSpeed="12.91" duration="1084.00" routeLength="7150.11" waitingTime="382.00" waitingCount="16" stopTime="3.00" timeLoss="542.38" rerouteNo="2" devices="vehroute_37 tripinfo_37 emissions_37" vType="vecType" speedFactor="1.18" vaporized="">
        <emissions CO_abs="92898.075341" CO2_abs="2966253.757736" HC_abs="490.603706" PMx_abs="56.810153" NOx_abs="1238.417396" fuel_abs="946123.725280" electricity_abs="0"/>
    </tripinfo>
    <tripinfo id="44" depart="18060.00" departLane="8915254_0" departPos="5.10" departSpeed="0.00" departDelay="0.00" arrival="19101.00" arrivalLane="8915254_0" arrivalPos="317.12" arrivalSpeed="22.20" duration="1041.00" routeLength="7777.74" waitingTime="326.00" waitingCount="12" stopTime="3.00" timeLoss="452.13" rerouteNo="1" devices="vehroute_44 tripinfo_44 emissions_44" vType="vecType" speedFactor="1.04" vaporized="">
        <emissions CO_abs="84814.482822" CO2_abs="2927196.471842" HC_abs="454.139646" PMx_abs="55.966858" NOx_abs="1213.043753" fuel_abs="933662.406879" electricity_abs="0"/>
    </tripinfo>
    <tripinfo id="19" depart="18000.00" departLane="254396707#6_0" departPos="5.10" departSpeed="0.00" departDelay="0.00" arrival="19183.00" arrivalLane="254396707#6_0" arrivalPos="139.12" arrivalSpeed="12.17" duration="1183.00" routeLength="6100.25" waitingTime="559.00" waitingCount="23" stopTime="3.00" timeLoss="711.72" rerouteNo="1" devices="vehroute_19 tripinfo_19 emissions_19" vType="vecType" speedFactor="1.16" vaporized="">
        <emissions CO_abs="121775.306222" CO2_abs="3259465.091240" HC_abs="629.404003" PMx_abs="66.706493" NOx_abs="1390.824969" fuel_abs="1039654.691401" electricity_abs="0"/>
    </tripinfo>
    <tripinfo id="14" depart="18000.00" departLane="8916767#0_0" departPos="5.10" departSpeed="0.00" departDelay="0.00" arrival="19197.00" arrivalLane="8916767#0_0" arrivalPos="129.66" arrivalSpeed="10.65" duration="1197.00" routeLength="7452.94" waitingTime="383.00" waitingCount="15" stopTime="3.00" timeLoss="520.89" rerouteNo="1" devices="vehroute_14 tripinfo_14 emissions_14" vType="vecType" speedFactor="0.99" vaporized="">
        <emissions CO_abs="95867.877514" CO2_abs="2998236.124544" HC_abs="505.901242" PMx_abs="55.371774" NOx_abs="1244.901956" fuel_abs="956328.235593" electricity_abs="0"/>
    </tripinfo>
    <tripinfo id="48" depart="18060.00" departLane="86303763#0_0" departPos="5.10" departSpeed="0.00" departDelay="0.00" arrival="19203.00" arrivalLane="86303763#0_0" arrivalPos="139.93" arrivalSpeed="9.49" duration="1143.00" routeLength="5756.09" waitingTime="439.00" waitingCount="16" stopTime="3.00" timeLoss="554.45" rerouteNo="1" devices="vehroute_48 tripinfo_48 emissions_48" vType="vecType" speedFactor="0.88" vaporized="">
        <emissions CO_abs="102090.693696" CO2_abs="2722993.529238" HC_abs="527.711975" PMx_abs="52.059026" NOx_abs="1146.300968" fuel_abs="868543.020240" electricity_abs="0"/>
    </tripinfo>
    <tripinfo id="22" depart="18000.00" departLane="27398045#1_0" departPos="5.10" departSpeed="0.00" departDelay="0.00" arrival="19205.00" arrivalLane="27398045#1_0" arrivalPos="122.17" arrivalSpeed="9.75" duration="1205.00" routeLength="7935.79" waitingTime="337.00" waitingCount="15" stopTime="3.00" timeLoss="476.05" rerouteNo="4" devices="vehroute_22 tripinfo_22 emissions_22" vType="vecType" speedFactor="0.97" vaporized="">
        <emissions CO_abs="89171.279308" CO2_abs="2947780.437355" HC_abs="474.041538" PMx_abs="52.667296" NOx_abs="1212.878532" fuel_abs="940233.436838" electricity_abs="0"/>
    </tripinfo>
    <tripinfo id="2" depart="18000.00" departLane="142972028#1_0" departPos="5.10" departSpeed="0.00" departDelay="0.00" arrival="19208.00" arrivalLane="142972028#1_0" arrivalPos="161.20" arrivalSpeed="10.47" duration="1208.00" routeLength="7339.41" waitingTime="418.00" waitingCount="19" stopTime="3.00" timeLoss="558.12" rerouteNo="2" devices="vehroute_2 tripinfo_2 emissions_2" vType="vecType" speedFactor="1.01" vaporized="">
        <emissions CO_abs="100196.381299" CO2_abs="2996709.447003" HC_abs="525.522553" PMx_abs="56.093647" NOx_abs="1248.084246" fuel_abs="955843.281025" electricity_abs="0"/>
    </tripinfo>
    <tripinfo id="35" depart="18000.00" departLane="191296172#0_0" departPos="5.10" departSpeed="0.00" departDelay="0.00" arrival="19211.00" arrivalLane="191296172#0_1" arrivalPos="157.44" arrivalSpeed="11.20" duration="1211.00" routeLength="8733.95" waitingTime="368.00" waitingCount="13" stopTime="3.00" timeLoss="496.05" rerouteNo="2" devices="vehroute_35 tripinfo_35 emissions_35" vType="vecType" speedFactor="1.02" vaporized="">
        <emissions CO_abs="94150.429896" CO2_abs="3202382.131121" HC_abs="502.767430" PMx_abs="59.533056" NOx_abs="1320.795819" fuel_abs="1021438.471580" electricity_abs="0"/>
    </tripinfo>
    <tripinfo id="38" depart="18006.00" departLane="142972028#1_0" departPos="5.10" departSpeed="0.00" departDelay="6.00" arrival="19218.00" arrivalLane="142972028#1_0" arrivalPos="161.20" arrivalSpeed="11.90" duration="1212.00" routeLength="7387.49" waitingTime="443.00" waitingCount="13" stopTime="3.00" timeLoss="579.11" rerouteNo="3" devices="vehroute_38 tripinfo_38 emissions_38" vType="vecType" speedFactor="1.10" vaporized="">
        <emissions CO_abs="103073.998405" CO2_abs="3079977.866352" HC_abs="540.062316" PMx_abs="58.378998" NOx_abs="1283.118254" fuel_abs="982402.435568" electricity_abs="0"/>
    </tripinfo>
    <tripinfo id="25" depart="18003.00" departLane="-23883761_0" departPos="5.10" departSpeed="0.00" departDelay="3.00" arrival="19227.00" arrivalLane="-23883761_0" arrivalPos="197.88" arrivalSpeed="8.79" duration="1224.00" routeLength="7067.07" waitingTime="355.00" waitingCount="18" stopTime="3.00" timeLoss="495.94" rerouteNo="2" devices="vehroute_25 tripinfo_25 emissions_25" vType="vecType" speedFactor="0.87" vaporized="">
        <emissions CO_abs="93650.439761" CO2_abs="2755538.812225" HC_abs="489.915850" PMx_abs="50.600302" NOx_abs="1147.132958" fuel_abs="878920.047561" electricity_abs="0"/>
    </tripinfo>
    <tripinfo id="6" depart="18000.00" departLane="225806031#0_0" departPos="5.10" departSpeed="0.00" departDelay="0.00" arrival="19255.00" arrivalLane="225806031#0_0" arrivalPos="142.16" arrivalSpeed="11.64" duration="1255.00" routeLength="7186.11" waitingTime="490.00" waitingCount="20" stopTime="3.00" timeLoss="639.21" rerouteNo="2" devices="vehroute_6 tripinfo_6 emissions_6" vType="vecType" speedFactor="1.05" vaporized="">
        <emissions CO_abs="111893.973946" CO2_abs="3204572.447842" HC_abs="583.456461" PMx_abs="61.304787" NOx_abs="1341.210297" fuel_abs="1022145.828452" electricity_abs="0"/>
    </tripinfo>
    <tripinfo id="8" depart="18003.00" departLane="31129765_0" departPos="5.10" departSpeed="0.00" departDelay="3.00" arrival="19267.00" arrivalLane="31129765_0" arrivalPos="639.51" arrivalSpeed="20.67" duration="1264.00" routeLength="8971.08" waitingTime="473.00" waitingCount="17" stopTime="3.00" timeLoss="601.57" rerouteNo="3" devices="vehroute_8 tripinfo_8 emissions_8" vType="vecType" speedFactor="0.94" vaporized="">
        <emissions CO_abs="113674.585142" CO2_abs="3533157.264563" HC_abs="599.479529" PMx_abs="69.961709" NOx_abs="1470.758339" fuel_abs="1126945.485662" electricity_abs="0"/>
    </tripinfo>