<?xml version="1.0" encoding="UTF-8"?>

<!-- generated on 2022-12-14 15:18:26 by Eclipse SUMO sumo Version 1.14.1
<configuration xmlns:xsi="http://www.w3.org/2001/XMLSchema-instance" xsi:noNamespaceSchemaLocation="http://sumo.dlr.de/xsd/sumoConfiguration.xsd">

    <input>
        <net-file value="./strategia2_config/../san_francisco.net.xml"/>
        <route-files value="./strategia2_config/../san_francisco.rou.xml"/>
        <additional-files value="./strategia2_config/../san_francisco.poly.xml,./strategia2_config/../parking_capacity_100%25/off_parking_100%25.add.xml,./strategia2_config/../parking_capacity_100%25/on_parking_100%25.add.xml"/>
    </input>

    <output>
        <emission-output value="./strategia2_config/../output/strategia2/100%25/emissions.xml"/>
        <tripinfo-output value="./strategia2_config/../output/strategia2/100%25/tripinfo.xml"/>
        <vehroute-output value="./strategia2_config/../output/strategia2/100%25/vehroute.xml"/>
        <stop-output value="./strategia2_config/../output/strategia2/100%25/stops.xml"/>
        <collision-output value="./strategia2_config/../output/strategia2/100%25/collision.xml"/>
        <statistic-output value="./strategia2_config/../output/strategia2/100%25/statistic.xml"/>
    </output>

    <time>
        <step-length value="1"/>
    </time>

    <processing>
        <ignore-route-errors value="false"/>
        <time-to-teleport value="-1"/>
    </processing>

    <report>
        <verbose value="true"/>
        <xml-validation value="never"/>
    </report>

    <traci_server>
        <remote-port value="53332"/>
    </traci_server>

    <gui_only>
        <gui-settings-file value="./strategia2_config/../gui-settings.cfg"/>
        <start value="true"/>
    </gui_only>

</configuration>
-->

<tripinfos xmlns:xsi="http://www.w3.org/2001/XMLSchema-instance" xsi:noNamespaceSchemaLocation="http://sumo.dlr.de/xsd/tripinfo_file.xsd">
    <tripinfo id="30" depart="18000.00" departLane="-91181760#0_0" departPos="5.10" departSpeed="0.00" departDelay="0.00" arrival="18336.00" arrivalLane="-91181760#0_0" arrivalPos="79.70" arrivalSpeed="12.17" duration="336.00" routeLength="3660.42" waitingTime="5.00" waitingCount="2" stopTime="3.00" timeLoss="54.44" rerouteNo="1" devices="vehroute_30 tripinfo_30 emissions_30" vType="vecType" speedFactor="1.18" vaporized="">
        <emissions CO_abs="13818.030434" CO2_abs="1007906.885002" HC_abs="85.535184" PMx_abs="16.322862" NOx_abs="399.286829" fuel_abs="321476.745374" electricity_abs="0"/>
    </tripinfo>
    <tripinfo id="1" depart="18000.00" departLane="31129765_0" departPos="5.10" departSpeed="0.00" departDelay="0.00" arrival="18354.00" arrivalLane="31129765_0" arrivalPos="639.51" arrivalSpeed="20.60" duration="354.00" routeLength="4341.32" waitingTime="36.00" waitingCount="2" stopTime="3.00" timeLoss="82.64" rerouteNo="1" devices="vehroute_1 tripinfo_1 emissions_1" vType="vecType" speedFactor="0.94" vaporized="">
        <emissions CO_abs="21438.886528" CO2_abs="1213076.726037" HC_abs="125.420421" PMx_abs="22.407057" NOx_abs="483.200360" fuel_abs="386917.577290" electricity_abs="0"/>
    </tripinfo>
    <tripinfo id="45" depart="18060.00" departLane="31129765_0" departPos="5.10" departSpeed="0.00" departDelay="0.00" arrival="18367.00" arrivalLane="31129765_0" arrivalPos="639.51" arrivalSpeed="23.24" duration="307.00" routeLength="4234.28" waitingTime="40.00" waitingCount="1" stopTime="3.00" timeLoss="80.72" rerouteNo="1" devices="vehroute_45 tripinfo_45 emissions_45" vType="vecType" speedFactor="1.09" vaporized="">
        <emissions CO_abs="23005.213730" CO2_abs="1287705.586770" HC_abs="135.070107" PMx_abs="25.671096" NOx_abs="519.188405" fuel_abs="410719.459927" electricity_abs="0"/>
    </tripinfo>
    <tripinfo id="60" depart="18060.00" departLane="8916792_0" departPos="5.10" departSpeed="0.00" departDelay="0.00" arrival="18488.00" arrivalLane="8916792_0" arrivalPos="615.11" arrivalSpeed="11.81" duration="428.00" routeLength="3743.73" waitingTime="70.00" waitingCount="3" stopTime="3.00" timeLoss="114.76" rerouteNo="1" devices="vehroute_60 tripinfo_60 emissions_60" vType="vecType" speedFactor="1.08" vaporized="">
        <emissions CO_abs="22447.871178" CO2_abs="1033018.911613" HC_abs="125.608907" PMx_abs="16.516684" NOx_abs="408.663222" fuel_abs="329491.900103" electricity_abs="0"/>
    </tripinfo>
    <tripinfo id="74" depart="18120.00" departLane="144489137#0_0" departPos="5.10" departSpeed="0.00" departDelay="0.00" arrival="18539.00" arrivalLane="144489137#0_0" arrivalPos="135.49" arrivalSpeed="9.81" duration="419.00" routeLength="2784.43" waitingTime="115.00" waitingCount="5" stopTime="3.00" timeLoss="158.65" rerouteNo="2" devices="vehroute_74 tripinfo_74 emissions_74" vType="vecType" speedFactor="0.96" vaporized="">
        <emissions CO_abs="30333.087336" CO2_abs="1013600.211339" HC_abs="161.360059" PMx_abs="18.123996" NOx_abs="417.035056" fuel_abs="323300.913150" electricity_abs="0"/>
    </tripinfo>
    <tripinfo id="76" depart="18120.00" departLane="225806031#0_0" departPos="5.10" departSpeed="0.00" departDelay="0.00" arrival="18576.00" arrivalLane="225806031#0_0" arrivalPos="142.16" arrivalSpeed="11.19" duration="456.00" routeLength="3181.76" waitingTime="120.00" waitingCount="5" stopTime="3.00" timeLoss="178.37" rerouteNo="1" devices="vehroute_76 tripinfo_76 emissions_76" vType="vecType" speedFactor="1.03" vaporized="">
        <emissions CO_abs="34352.656464" CO2_abs="1210589.379184" HC_abs="184.391568" PMx_abs="22.141527" NOx_abs="500.609721" fuel_abs="386131.470220" electricity_abs="0"/>
    </tripinfo>
    <tripinfo id="21" depart="18000.00" departLane="27167762_0" departPos="5.10" departSpeed="0.00" departDelay="0.00" arrival="18621.00" arrivalLane="27167762_0" arrivalPos="139.02" arrivalSpeed="21.62" duration="621.00" routeLength="5420.07" waitingTime="170.00" waitingCount="8" stopTime="3.00" timeLoss="252.39" rerouteNo="2" devices="vehroute_21 tripinfo_21 emissions_21" vType="vecType" speedFactor="1.01" vaporized="">
        <emissions CO_abs="52049.170831" CO2_abs="1970250.997540" HC_abs="283.282882" PMx_abs="38.604624" NOx_abs="812.814240" fuel_abs="628430.341412" electricity_abs="0"/>
    </tripinfo>
    <tripinfo id="10" depart="18000.00" departLane="90077241_0" departPos="5.10" departSpeed="0.00" departDelay="0.00" arrival="18639.00" arrivalLane="90077241_0" arrivalPos="3225.35" arrivalSpeed="30.91" duration="639.00" routeLength="11810.95" waitingTime="98.00" waitingCount="4" stopTime="3.00" timeLoss="177.25" rerouteNo="2" devices="vehroute_10 tripinfo_10 emissions_10" vType="vecType" speedFactor="1.09" vaporized="">
        <emissions CO_abs="64002.691316" CO2_abs="3135278.091398" HC_abs="369.297853" PMx_abs="69.973493" NOx_abs="1225.444461" fuel_abs="1000014.719630" electricity_abs="0"/>
    </tripinfo>
    <tripinfo id="49" depart="18063.00" departLane="31129765_0" departPos="5.10" departSpeed="0.00" departDelay="3.00" arrival="18646.00" arrivalLane="31129765_0" arrivalPos="639.51" arrivalSpeed="18.97" duration="583.00" routeLength="12944.78" waitingTime="0.00" waitingCount="0" stopTime="3.00" timeLoss="34.05" rerouteNo="1" devices="vehroute_49 tripinfo_49 emissions_49" vType="vecType" speedFactor="0.85" vaporized="">
        <emissions CO_abs="23195.548644" CO2_abs="2467700.763190" HC_abs="161.146790" PMx_abs="45.132023" NOx_abs="898.560677" fuel_abs="787079.860826" electricity_abs="0"/>
    </tripinfo>
</tripinfos>
