<?xml version="1.0" encoding="UTF-8"?>

<!-- generated on 2022-12-20 20:03:35 by Eclipse SUMO sumo Version 1.14.1
<configuration xmlns:xsi="http://www.w3.org/2001/XMLSchema-instance" xsi:noNamespaceSchemaLocation="http://sumo.dlr.de/xsd/sumoConfiguration.xsd">

    <input>
        <net-file value="./strategia2_config/../san_francisco.net.xml"/>
        <route-files value="./strategia2_config/../san_francisco.rou.xml"/>
        <additional-files value="./strategia2_config/../san_francisco.poly.xml,./strategia2_config/../parking_capacity_100%25/off_parking_100%25.add.xml,./strategia2_config/../parking_capacity_100%25/on_parking_100%25.add.xml"/>
    </input>

    <output>
        <emission-output value="./strategia2_config/../output/strategia2/100%25/emissions.xml"/>
        <tripinfo-output value="./strategia2_config/../output/strategia2/100%25/tripinfo.xml"/>
        <vehroute-output value="./strategia2_config/../output/strategia2/100%25/vehroute.xml"/>
        <stop-output value="./strategia2_config/../output/strategia2/100%25/stops.xml"/>
        <collision-output value="./strategia2_config/../output/strategia2/100%25/collision.xml"/>
        <statistic-output value="./strategia2_config/../output/strategia2/100%25/statistic.xml"/>
    </output>

    <time>
        <step-length value="1"/>
    </time>

    <processing>
        <ignore-route-errors value="false"/>
        <time-to-teleport value="-1"/>
    </processing>

    <report>
        <verbose value="true"/>
        <xml-validation value="never"/>
    </report>

    <traci_server>
        <remote-port value="57210"/>
    </traci_server>

    <gui_only>
        <gui-settings-file value="./strategia2_config/../gui-settings.cfg"/>
        <start value="true"/>
    </gui_only>

</configuration>
-->

<tripinfos xmlns:xsi="http://www.w3.org/2001/XMLSchema-instance" xsi:noNamespaceSchemaLocation="http://sumo.dlr.de/xsd/tripinfo_file.xsd">
    <tripinfo id="30" depart="18000.00" departLane="-91181760#0_0" departPos="5.10" departSpeed="0.00" departDelay="0.00" arrival="18333.00" arrivalLane="-91181760#0_0" arrivalPos="79.70" arrivalSpeed="11.98" duration="333.00" routeLength="3660.42" waitingTime="5.00" waitingCount="2" stopTime="3.00" timeLoss="52.14" rerouteNo="1" devices="vehroute_30 tripinfo_30 emissions_30" vType="vecType" speedFactor="1.18" vaporized="">
        <emissions CO_abs="13327.088583" CO2_abs="992561.333648" HC_abs="82.977813" PMx_abs="15.871572" NOx_abs="391.599374" fuel_abs="316582.283534" electricity_abs="0"/>
    </tripinfo>
    <tripinfo id="1" depart="18000.00" departLane="31129765_0" departPos="5.10" departSpeed="0.00" departDelay="0.00" arrival="18354.00" arrivalLane="31129765_0" arrivalPos="639.51" arrivalSpeed="20.25" duration="354.00" routeLength="4341.32" waitingTime="36.00" waitingCount="2" stopTime="3.00" timeLoss="82.48" rerouteNo="1" devices="vehroute_1 tripinfo_1 emissions_1" vType="vecType" speedFactor="0.94" vaporized="">
        <emissions CO_abs="21360.176337" CO2_abs="1209219.191175" HC_abs="124.840995" PMx_abs="22.268365" NOx_abs="480.764589" fuel_abs="385687.251654" electricity_abs="0"/>
    </tripinfo>
    <tripinfo id="45" depart="18060.00" departLane="31129765_0" departPos="5.10" departSpeed="0.00" departDelay="0.00" arrival="18368.00" arrivalLane="31129765_0" arrivalPos="639.51" arrivalSpeed="23.88" duration="308.00" routeLength="4234.28" waitingTime="40.00" waitingCount="1" stopTime="3.00" timeLoss="81.84" rerouteNo="1" devices="vehroute_45 tripinfo_45 emissions_45" vType="vecType" speedFactor="1.09" vaporized="">
        <emissions CO_abs="22943.823068" CO2_abs="1283822.675284" HC_abs="134.789924" PMx_abs="25.564211" NOx_abs="517.944958" fuel_abs="409481.026920" electricity_abs="0"/>
    </tripinfo>
    <tripinfo id="60" depart="18060.00" departLane="8916792_0" departPos="5.10" departSpeed="0.00" departDelay="0.00" arrival="18487.00" arrivalLane="8916792_0" arrivalPos="615.11" arrivalSpeed="11.92" duration="427.00" routeLength="3743.73" waitingTime="70.00" waitingCount="3" stopTime="3.00" timeLoss="114.64" rerouteNo="1" devices="vehroute_60 tripinfo_60 emissions_60" vType="vecType" speedFactor="1.08" vaporized="">
        <emissions CO_abs="22171.814594" CO2_abs="1026806.225510" HC_abs="124.156747" PMx_abs="16.148809" NOx_abs="404.133849" fuel_abs="327510.550850" electricity_abs="0"/>
    </tripinfo>
    <tripinfo id="21" depart="18000.00" departLane="27167762_0" departPos="5.10" departSpeed="0.00" departDelay="0.00" arrival="18537.00" arrivalLane="27167762_0" arrivalPos="139.02" arrivalSpeed="21.42" duration="537.00" routeLength="5201.43" waitingTime="115.00" waitingCount="5" stopTime="3.00" timeLoss="187.22" rerouteNo="1" devices="vehroute_21 tripinfo_21 emissions_21" vType="vecType" speedFactor="1.01" vaporized="">
        <emissions CO_abs="38834.704933" CO2_abs="1691942.346127" HC_abs="216.001571" PMx_abs="31.407102" NOx_abs="682.281428" fuel_abs="539659.582236" electricity_abs="0"/>
    </tripinfo>
    <tripinfo id="74" depart="18120.00" departLane="144489137#0_0" departPos="5.10" departSpeed="0.00" departDelay="0.00" arrival="18540.00" arrivalLane="144489137#0_0" arrivalPos="135.49" arrivalSpeed="9.81" duration="420.00" routeLength="2278.79" waitingTime="159.00" waitingCount="7" stopTime="3.00" timeLoss="206.60" rerouteNo="2" devices="vehroute_74 tripinfo_74 emissions_74" vType="vecType" speedFactor="0.96" vaporized="">
        <emissions CO_abs="37728.667300" CO2_abs="1053363.742019" HC_abs="196.233210" PMx_abs="20.458505" NOx_abs="444.586725" fuel_abs="335986.070093" electricity_abs="0"/>
    </tripinfo>
    <tripinfo id="28" depart="18009.00" departLane="90077241_0" departPos="5.10" departSpeed="0.00" departDelay="9.00" arrival="18562.00" arrivalLane="90077241_0" arrivalPos="3225.35" arrivalSpeed="31.92" duration="553.00" routeLength="11899.33" waitingTime="66.00" waitingCount="2" stopTime="3.00" timeLoss="122.00" rerouteNo="2" devices="vehroute_28 tripinfo_28 emissions_28" vType="vecType" speedFactor="1.13" vaporized="">
        <emissions CO_abs="60519.552006" CO2_abs="3106365.260866" HC_abs="353.386069" PMx_abs="71.492303" NOx_abs="1210.440118" fuel_abs="990789.857164" electricity_abs="0"/>
    </tripinfo>
    <tripinfo id="76" depart="18120.00" departLane="225806031#0_0" departPos="5.10" departSpeed="0.00" departDelay="0.00" arrival="18576.00" arrivalLane="225806031#0_0" arrivalPos="142.16" arrivalSpeed="10.44" duration="456.00" routeLength="3181.76" waitingTime="118.00" waitingCount="5" stopTime="3.00" timeLoss="179.17" rerouteNo="1" devices="vehroute_76 tripinfo_76 emissions_76" vType="vecType" speedFactor="1.03" vaporized="">
        <emissions CO_abs="33676.061978" CO2_abs="1195832.682264" HC_abs="180.993811" PMx_abs="21.654669" NOx_abs="493.120784" fuel_abs="381424.752947" electricity_abs="0"/>
    </tripinfo>
    <tripinfo id="39" depart="18006.00" departLane="31129765_0" departPos="5.10" departSpeed="0.00" departDelay="6.00" arrival="18578.00" arrivalLane="31129765_0" arrivalPos="639.51" arrivalSpeed="19.33" duration="572.00" routeLength="5869.49" waitingTime="131.00" waitingCount="4" stopTime="3.00" timeLoss="191.43" rerouteNo="2" devices="vehroute_39 tripinfo_39 emissions_39" vType="vecType" speedFactor="0.90" vaporized="">
        <emissions CO_abs="40886.284106" CO2_abs="1747941.229818" HC_abs="225.719589" PMx_abs="32.316588" NOx_abs="695.463242" fuel_abs="557521.966912" electricity_abs="0"/>
    </tripinfo>
    <tripinfo id="93" depart="18120.00" departLane="-254758121#2_0" departPos="5.10" departSpeed="0.00" departDelay="0.00" arrival="18580.00" arrivalLane="-254758121#2_0" arrivalPos="99.35" arrivalSpeed="9.50" duration="460.00" routeLength="3841.81" waitingTime="35.00" waitingCount="2" stopTime="3.00" timeLoss="83.91" rerouteNo="2" devices="vehroute_93 tripinfo_93 emissions_93" vType="vecType" speedFactor="0.92" vaporized="">
        <emissions CO_abs="20595.021792" CO2_abs="1038289.169843" HC_abs="117.515821" PMx_abs="15.734529" NOx_abs="409.892872" fuel_abs="331172.273442" electricity_abs="0"/>
    </tripinfo>
    <tripinfo id="10" depart="18000.00" departLane="90077241_0" departPos="5.10" departSpeed="0.00" departDelay="0.00" arrival="18639.00" arrivalLane="90077241_0" arrivalPos="3225.35" arrivalSpeed="30.60" duration="639.00" routeLength="11810.95" waitingTime="103.00" waitingCount="4" stopTime="3.00" timeLoss="176.99" rerouteNo="1" devices="vehroute_10 tripinfo_10 emissions_10" vType="vecType" speedFactor="1.09" vaporized="">
        <emissions CO_abs="64216.597786" CO2_abs="3140672.108600" HC_abs="370.404323" PMx_abs="70.167358" NOx_abs="1230.478574" fuel_abs="1001734.968823" electricity_abs="0"/>
    </tripinfo>
    <tripinfo id="49" depart="18063.00" departLane="31129765_0" departPos="5.10" departSpeed="0.00" departDelay="3.00" arrival="18647.00" arrivalLane="31129765_0" arrivalPos="639.51" arrivalSpeed="18.34" duration="584.00" routeLength="12944.78" waitingTime="0.00" waitingCount="0" stopTime="3.00" timeLoss="34.42" rerouteNo="1" devices="vehroute_49 tripinfo_49 emissions_49" vType="vecType" speedFactor="0.85" vaporized="">
        <emissions CO_abs="22705.121984" CO2_abs="2470916.564418" HC_abs="159.448356" PMx_abs="44.844808" NOx_abs="896.614628" fuel_abs="788105.877537" electricity_abs="0"/>
    </tripinfo>
    <tripinfo id="16" depart="18006.00" departLane="90077241_0" departPos="5.10" departSpeed="0.00" departDelay="6.00" arrival="18686.00" arrivalLane="90077241_0" arrivalPos="3225.35" arrivalSpeed="24.93" duration="680.00" routeLength="11625.26" waitingTime="98.00" waitingCount="2" stopTime="3.00" timeLoss="152.88" rerouteNo="1" devices="vehroute_16 tripinfo_16 emissions_16" vType="vecType" speedFactor="0.88" vaporized="">
        <emissions CO_abs="44184.416025" CO2_abs="2687987.170742" HC_abs="262.315062" PMx_abs="51.774899" NOx_abs="1021.623559" fuel_abs="857348.281643" electricity_abs="0"/>
    </tripinfo>
    <tripinfo id="36" depart="18009.00" departLane="123867455_0" departPos="5.10" departSpeed="0.00" departDelay="9.00" arrival="18703.00" arrivalLane="123867455_0" arrivalPos="904.85" arrivalSpeed="27.15" duration="694.00" routeLength="5901.75" waitingTime="229.00" waitingCount="7" stopTime="3.00" timeLoss="307.50" rerouteNo="2" devices="vehroute_36 tripinfo_36 emissions_36" vType="vecType" speedFactor="0.97" vaporized="">
        <emissions CO_abs="61421.789084" CO2_abs="2134603.327985" HC_abs="330.042276" PMx_abs="42.601473" NOx_abs="878.326427" fuel_abs="680854.978392" electricity_abs="0"/>
    </tripinfo>
    <tripinfo id="47" depart="18060.00" departLane="90077241_0" departPos="5.10" departSpeed="0.00" departDelay="0.00" arrival="18705.00" arrivalLane="90077241_0" arrivalPos="3225.35" arrivalSpeed="25.80" duration="645.00" routeLength="11565.45" waitingTime="63.00" waitingCount="3" stopTime="3.00" timeLoss="107.50" rerouteNo="1" devices="vehroute_47 tripinfo_47 emissions_47" vType="vecType" speedFactor="0.90" vaporized="">
        <emissions CO_abs="38647.046972" CO2_abs="2555754.332000" HC_abs="235.548446" PMx_abs="49.409188" NOx_abs="965.745112" fuel_abs="815170.471046" electricity_abs="0"/>
    </tripinfo>
    <tripinfo id="31" depart="18006.00" departLane="123867455_0" departPos="5.10" departSpeed="0.00" departDelay="6.00" arrival="18706.00" arrivalLane="123867455_0" arrivalPos="904.85" arrivalSpeed="33.18" duration="700.00" routeLength="7632.90" waitingTime="131.00" waitingCount="7" stopTime="3.00" timeLoss="232.52" rerouteNo="1" devices="vehroute_31 tripinfo_31 emissions_31" vType="vecType" speedFactor="1.15" vaporized="">
        <emissions CO_abs="50442.847831" CO2_abs="2348893.206773" HC_abs="284.212834" PMx_abs="44.879001" NOx_abs="948.633118" fuel_abs="749196.685516" electricity_abs="0"/>
    </tripinfo>
    <tripinfo id="68" depart="18060.00" departLane="27167762_0" departPos="5.10" departSpeed="0.00" departDelay="0.00" arrival="18710.00" arrivalLane="27167762_0" arrivalPos="139.02" arrivalSpeed="22.75" duration="650.00" routeLength="5366.29" waitingTime="211.00" waitingCount="8" stopTime="3.00" timeLoss="296.03" rerouteNo="1" devices="vehroute_68 tripinfo_68 emissions_68" vType="vecType" speedFactor="1.04" vaporized="">
        <emissions CO_abs="59031.348303" CO2_abs="2110429.060731" HC_abs="318.202248" PMx_abs="42.429220" NOx_abs="876.632889" fuel_abs="673142.352414" electricity_abs="0"/>
    </tripinfo>
    <tripinfo id="13" depart="18003.00" departLane="90077241_0" departPos="5.10" departSpeed="0.00" departDelay="3.00" arrival="18747.00" arrivalLane="90077241_0" arrivalPos="3225.35" arrivalSpeed="31.96" duration="744.00" routeLength="12752.38" waitingTime="144.00" waitingCount="6" stopTime="3.00" timeLoss="221.26" rerouteNo="1" devices="vehroute_13 tripinfo_13 emissions_13" vType="vecType" speedFactor="1.12" vaporized="">
        <emissions CO_abs="76461.386984" CO2_abs="3513706.593907" HC_abs="435.011469" PMx_abs="78.758335" NOx_abs="1384.811986" fuel_abs="1120718.551638" electricity_abs="0"/>
    </tripinfo>
    <tripinfo id="20" depart="18000.00" departLane="123867455_0" departPos="5.10" departSpeed="0.00" departDelay="0.00" arrival="18748.00" arrivalLane="123867455_0" arrivalPos="904.85" arrivalSpeed="28.34" duration="748.00" routeLength="6690.85" waitingTime="219.00" waitingCount="10" stopTime="3.00" timeLoss="309.46" rerouteNo="1" devices="vehroute_20 tripinfo_20 emissions_20" vType="vecType" speedFactor="1.02" vaporized="">
        <emissions CO_abs="64497.421472" CO2_abs="2385966.630658" HC_abs="350.317467" PMx_abs="47.551212" NOx_abs="980.100287" fuel_abs="761027.633101" electricity_abs="0"/>
    </tripinfo>
    <tripinfo id="63" depart="18063.00" departLane="-204967525_0" departPos="5.10" departSpeed="0.00" departDelay="3.00" arrival="18749.00" arrivalLane="-204967525_1" arrivalPos="146.26" arrivalSpeed="10.05" duration="686.00" routeLength="4830.14" waitingTime="155.00" waitingCount="8" stopTime="3.00" timeLoss="245.28" rerouteNo="1" devices="vehroute_63 tripinfo_63 emissions_63" vType="vecType" speedFactor="0.99" vaporized="">
        <emissions CO_abs="45403.412466" CO2_abs="1634428.631690" HC_abs="244.387973" PMx_abs="28.186271" NOx_abs="665.702419" fuel_abs="521321.174404" electricity_abs="0"/>
    </tripinfo>
    <tripinfo id="77" depart="18120.00" departLane="90077241_0" departPos="5.10" departSpeed="0.00" departDelay="0.00" arrival="18750.00" arrivalLane="90077241_0" arrivalPos="3225.35" arrivalSpeed="27.85" duration="630.00" routeLength="11810.95" waitingTime="54.00" waitingCount="3" stopTime="3.00" timeLoss="117.44" rerouteNo="1" devices="vehroute_77 tripinfo_77 emissions_77" vType="vecType" speedFactor="0.98" vaporized="">
        <emissions CO_abs="46571.156459" CO2_abs="2819891.046456" HC_abs="280.340099" PMx_abs="58.120717" NOx_abs="1083.157179" fuel_abs="899417.573775" electricity_abs="0"/>
    </tripinfo>
    <tripinfo id="15" depart="18000.00" departLane="-24310636#2_0" departPos="5.10" departSpeed="0.00" departDelay="0.00" arrival="18753.00" arrivalLane="-24310636#2_1" arrivalPos="108.36" arrivalSpeed="9.33" duration="753.00" routeLength="6010.81" waitingTime="141.00" waitingCount="9" stopTime="4.00" timeLoss="228.38" rerouteNo="1" devices="vehroute_15 tripinfo_15 emissions_15" vType="vecType" speedFactor="0.93" vaporized="">
        <emissions CO_abs="48302.654466" CO2_abs="1889394.566222" HC_abs="263.674976" PMx_abs="33.353614" NOx_abs="769.632617" fuel_abs="602642.451225" electricity_abs="0"/>
    </tripinfo>
    <tripinfo id="33" depart="18000.00" departLane="144489137#0_0" departPos="5.10" departSpeed="0.00" departDelay="0.00" arrival="18781.00" arrivalLane="144489137#0_0" arrivalPos="135.49" arrivalSpeed="12.94" duration="781.00" routeLength="3872.00" waitingTime="389.00" waitingCount="14" stopTime="3.00" timeLoss="484.65" rerouteNo="1" devices="vehroute_33 tripinfo_33 emissions_33" vType="vecType" speedFactor="1.17" vaporized="">
        <emissions CO_abs="82595.664878" CO2_abs="2156321.625805" HC_abs="425.476304" PMx_abs="44.322680" NOx_abs="920.735302" fuel_abs="687791.822622" electricity_abs="0"/>
    </tripinfo>
    <tripinfo id="82" depart="18123.00" departLane="-133781749_0" departPos="5.10" departSpeed="0.00" departDelay="3.00" arrival="18784.00" arrivalLane="-133781749_0" arrivalPos="138.68" arrivalSpeed="10.24" duration="661.00" routeLength="5499.56" waitingTime="127.00" waitingCount="10" stopTime="3.00" timeLoss="228.48" rerouteNo="1" devices="vehroute_82 tripinfo_82 emissions_82" vType="vecType" speedFactor="1.02" vaporized="">
        <emissions CO_abs="45472.396403" CO2_abs="1837370.114458" HC_abs="249.694120" PMx_abs="33.322984" NOx_abs="749.905030" fuel_abs="586047.127996" electricity_abs="0"/>
    </tripinfo>
    <tripinfo id="56" depart="18066.00" departLane="31129765_0" departPos="5.10" departSpeed="0.00" departDelay="6.00" arrival="18788.00" arrivalLane="31129765_0" arrivalPos="639.51" arrivalSpeed="19.49" duration="722.00" routeLength="6622.27" waitingTime="186.00" waitingCount="5" stopTime="3.00" timeLoss="265.75" rerouteNo="1" devices="vehroute_56 tripinfo_56 emissions_56" vType="vecType" speedFactor="0.90" vaporized="">
        <emissions CO_abs="54422.277926" CO2_abs="2098519.345696" HC_abs="295.433192" PMx_abs="39.612196" NOx_abs="849.770867" fuel_abs="669343.832853" electricity_abs="0"/>
    </tripinfo>
    <tripinfo id="0" depart="18000.00" departLane="84823308_0" departPos="5.10" departSpeed="0.00" departDelay="0.00" arrival="18796.00" arrivalLane="84823308_0" arrivalPos="275.63" arrivalSpeed="10.59" duration="796.00" routeLength="5732.03" waitingTime="218.00" waitingCount="8" stopTime="3.00" timeLoss="308.85" rerouteNo="2" devices="vehroute_0 tripinfo_0 emissions_0" vType="vecType" speedFactor="1.06" vaporized="">
        <emissions CO_abs="56847.043416" CO2_abs="2032617.686980" HC_abs="305.511365" PMx_abs="36.059893" NOx_abs="831.152752" fuel_abs="648327.842768" electricity_abs="0"/>
    </tripinfo>
    <tripinfo id="2" depart="18000.00" departLane="142972028#1_0" departPos="5.10" departSpeed="0.00" departDelay="0.00" arrival="18847.00" arrivalLane="142972028#1_0" arrivalPos="161.20" arrivalSpeed="11.15" duration="847.00" routeLength="6732.31" waitingTime="184.00" waitingCount="14" stopTime="4.00" timeLoss="305.74" rerouteNo="2" devices="vehroute_2 tripinfo_2 emissions_2" vType="vecType" speedFactor="1.01" vaporized="">
        <emissions CO_abs="58793.161114" CO2_abs="2294884.197608" HC_abs="320.714469" PMx_abs="41.147091" NOx_abs="934.519535" fuel_abs="731977.411544" electricity_abs="0"/>
    </tripinfo>
    <tripinfo id="84" depart="18123.00" departLane="90077241_0" departPos="5.10" departSpeed="0.00" departDelay="3.00" arrival="18850.00" arrivalLane="90077241_0" arrivalPos="3225.35" arrivalSpeed="32.35" duration="727.00" routeLength="12280.95" waitingTime="180.00" waitingCount="6" stopTime="3.00" timeLoss="248.03" rerouteNo="1" devices="vehroute_84 tripinfo_84 emissions_84" vType="vecType" speedFactor="1.15" vaporized="">
        <emissions CO_abs="82936.751388" CO2_abs="3506253.078281" HC_abs="464.443776" PMx_abs="80.673498" NOx_abs="1387.628579" fuel_abs="1118343.588419" electricity_abs="0"/>
    </tripinfo>
    <tripinfo id="114" depart="18240.00" departLane="-254758120#3_0" departPos="5.10" departSpeed="0.00" departDelay="0.00" arrival="18862.00" arrivalLane="-254758120#3_0" arrivalPos="147.41" arrivalSpeed="11.08" duration="622.00" routeLength="3346.72" waitingTime="278.00" waitingCount="10" stopTime="3.00" timeLoss="345.86" rerouteNo="2" devices="vehroute_114 tripinfo_114 emissions_114" vType="vecType" speedFactor="1.10" vaporized="">
        <emissions CO_abs="60462.096112" CO2_abs="1653706.913669" HC_abs="313.369319" PMx_abs="32.803553" NOx_abs="699.388427" fuel_abs="527474.691073" electricity_abs="0"/>
    </tripinfo>
    <tripinfo id="64" depart="18060.00" departLane="28319343#2_0" departPos="5.10" departSpeed="0.00" departDelay="0.00" arrival="18871.00" arrivalLane="28319343#2_0" arrivalPos="90.58" arrivalSpeed="10.01" duration="811.00" routeLength="9974.14" waitingTime="209.00" waitingCount="8" stopTime="3.00" timeLoss="282.34" rerouteNo="2" devices="vehroute_64 tripinfo_64 emissions_64" vType="vecType" speedFactor="0.94" vaporized="">
        <emissions CO_abs="64732.904070" CO2_abs="2741838.248958" HC_abs="359.030081" PMx_abs="54.552475" NOx_abs="1082.842743" fuel_abs="874533.434342" electricity_abs="0"/>
    </tripinfo>
    <tripinfo id="9" depart="18000.00" departLane="23959829#0_0" departPos="5.10" departSpeed="0.00" departDelay="0.00" arrival="18876.00" arrivalLane="23959829#0_0" arrivalPos="45.86" arrivalSpeed="9.55" duration="876.00" routeLength="6745.88" waitingTime="133.00" waitingCount="7" stopTime="3.00" timeLoss="233.54" rerouteNo="2" devices="vehroute_9 tripinfo_9 emissions_9" vType="vecType" speedFactor="0.86" vaporized="">
        <emissions CO_abs="51194.077926" CO2_abs="2063574.865289" HC_abs="280.181351" PMx_abs="33.860758" NOx_abs="826.935699" fuel_abs="658200.782979" electricity_abs="0"/>
    </tripinfo>
    <tripinfo id="40" depart="18000.00" departLane="-206679802#4_0" departPos="5.10" departSpeed="0.00" departDelay="0.00" arrival="18876.00" arrivalLane="-206679802#4_0" arrivalPos="292.11" arrivalSpeed="10.39" duration="876.00" routeLength="6024.23" waitingTime="253.00" waitingCount="10" stopTime="3.00" timeLoss="351.46" rerouteNo="2" devices="vehroute_40 tripinfo_40 emissions_40" vType="vecType" speedFactor="1.03" vaporized="">
        <emissions CO_abs="65346.391208" CO2_abs="2241880.179382" HC_abs="349.276350" PMx_abs="40.447781" NOx_abs="922.725539" fuel_abs="715075.418410" electricity_abs="0"/>
    </tripinfo>
    <tripinfo id="73" depart="18120.00" departLane="-204967525_0" departPos="5.10" departSpeed="0.00" departDelay="0.00" arrival="18879.00" arrivalLane="-204967525_1" arrivalPos="146.26" arrivalSpeed="11.23" duration="759.00" routeLength="5090.57" waitingTime="237.00" waitingCount="8" stopTime="3.00" timeLoss="323.78" rerouteNo="1" devices="vehroute_73 tripinfo_73 emissions_73" vType="vecType" speedFactor="1.06" vaporized="">
        <emissions CO_abs="60800.905670" CO2_abs="2030697.705490" HC_abs="323.866070" PMx_abs="38.032528" NOx_abs="845.109281" fuel_abs="647715.575451" electricity_abs="0"/>
    </tripinfo>
    <tripinfo id="104" depart="18180.00" departLane="8915254_0" departPos="5.10" departSpeed="0.00" departDelay="0.00" arrival="18881.00" arrivalLane="8915254_0" arrivalPos="317.12" arrivalSpeed="19.26" duration="701.00" routeLength="5663.72" waitingTime="152.00" waitingCount="5" stopTime="3.00" timeLoss="225.67" rerouteNo="2" devices="vehroute_104 tripinfo_104 emissions_104" vType="vecType" speedFactor="0.89" vaporized="">
        <emissions CO_abs="46852.121969" CO2_abs="1818403.879818" HC_abs="255.016528" PMx_abs="32.290262" NOx_abs="737.297553" fuel_abs="579999.469673" electricity_abs="0"/>
    </tripinfo>
    <tripinfo id="12" depart="18000.00" departLane="-23883761_0" departPos="5.10" departSpeed="0.00" departDelay="0.00" arrival="18883.00" arrivalLane="-23883761_0" arrivalPos="197.88" arrivalSpeed="10.74" duration="883.00" routeLength="5849.00" waitingTime="273.00" waitingCount="12" stopTime="3.00" timeLoss="379.81" rerouteNo="1" devices="vehroute_12 tripinfo_12 emissions_12" vType="vecType" speedFactor="1.05" vaporized="">
        <emissions CO_abs="69479.178254" CO2_abs="2268424.251282" HC_abs="368.764038" PMx_abs="42.016454" NOx_abs="940.549969" fuel_abs="723542.892208" electricity_abs="0"/>
    </tripinfo>
    <tripinfo id="27" depart="18000.00" departLane="-8916048_0" departPos="5.10" departSpeed="0.00" departDelay="0.00" arrival="18888.00" arrivalLane="-8916048_0" arrivalPos="126.72" arrivalSpeed="9.46" duration="888.00" routeLength="6742.86" waitingTime="196.00" waitingCount="8" stopTime="3.00" timeLoss="307.40" rerouteNo="1" devices="vehroute_27 tripinfo_27 emissions_27" vType="vecType" speedFactor="0.95" vaporized="">
        <emissions CO_abs="60626.549588" CO2_abs="2274873.414606" HC_abs="328.214884" PMx_abs="40.066873" NOx_abs="924.504691" fuel_abs="725596.785013" electricity_abs="0"/>
    </tripinfo>
    <tripinfo id="85" depart="18126.00" departLane="90077241_0" departPos="5.10" departSpeed="0.00" departDelay="6.00" arrival="18888.00" arrivalLane="90077241_0" arrivalPos="3225.35" arrivalSpeed="27.11" duration="762.00" routeLength="11984.76" waitingTime="161.00" waitingCount="6" stopTime="3.00" timeLoss="229.27" rerouteNo="1" devices="vehroute_85 tripinfo_85 emissions_85" vType="vecType" speedFactor="0.98" vaporized="">
        <emissions CO_abs="62953.400392" CO2_abs="3072028.984463" HC_abs="360.705098" PMx_abs="63.590097" NOx_abs="1191.594331" fuel_abs="979844.873040" electricity_abs="0"/>
    </tripinfo>
    <tripinfo id="29" depart="18000.00" departLane="-35977367#2_0" departPos="5.10" departSpeed="0.00" departDelay="0.00" arrival="18892.00" arrivalLane="-35977367#2_0" arrivalPos="431.73" arrivalSpeed="9.36" duration="892.00" routeLength="6070.29" waitingTime="211.00" waitingCount="7" stopTime="3.00" timeLoss="305.77" rerouteNo="2" devices="vehroute_29 tripinfo_29 emissions_29" vType="vecType" speedFactor="0.93" vaporized="">
        <emissions CO_abs="60828.058218" CO2_abs="2117553.637291" HC_abs="325.766095" PMx_abs="37.020557" NOx_abs="867.724274" fuel_abs="675420.382295" electricity_abs="0"/>
    </tripinfo>
    <tripinfo id="79" depart="18120.00" departLane="-24310636#2_0" departPos="5.10" departSpeed="0.00" departDelay="0.00" arrival="18893.00" arrivalLane="-24310636#2_1" arrivalPos="108.36" arrivalSpeed="10.98" duration="773.00" routeLength="6581.41" waitingTime="155.00" waitingCount="9" stopTime="3.00" timeLoss="279.04" rerouteNo="1" devices="vehroute_79 tripinfo_79 emissions_79" vType="vecType" speedFactor="1.09" vaporized="">
        <emissions CO_abs="52302.310178" CO2_abs="2196860.424773" HC_abs="289.038334" PMx_abs="39.748756" NOx_abs="897.905281" fuel_abs="700708.674253" electricity_abs="0"/>
    </tripinfo>
    <tripinfo id="42" depart="18009.00" departLane="31129765_0" departPos="5.10" departSpeed="0.00" departDelay="9.00" arrival="18895.00" arrivalLane="31129765_0" arrivalPos="639.51" arrivalSpeed="23.26" duration="886.00" routeLength="7763.38" waitingTime="302.00" waitingCount="12" stopTime="3.00" timeLoss="414.57" rerouteNo="1" devices="vehroute_42 tripinfo_42 emissions_42" vType="vecType" speedFactor="1.09" vaporized="">
        <emissions CO_abs="82042.100115" CO2_abs="2896895.382456" HC_abs="441.657247" PMx_abs="59.220941" NOx_abs="1202.329109" fuel_abs="923993.718425" electricity_abs="0"/>
    </tripinfo>
    <tripinfo id="119" depart="18240.00" departLane="8916767#0_0" departPos="5.10" departSpeed="0.00" departDelay="0.00" arrival="18916.00" arrivalLane="8916767#0_0" arrivalPos="129.66" arrivalSpeed="11.58" duration="676.00" routeLength="5013.92" waitingTime="160.00" waitingCount="9" stopTime="3.00" timeLoss="253.64" rerouteNo="1" devices="vehroute_119 tripinfo_119 emissions_119" vType="vecType" speedFactor="1.07" vaporized="">
        <emissions CO_abs="46723.262181" CO2_abs="1747742.831786" HC_abs="252.961925" PMx_abs="31.028139" NOx_abs="715.913574" fuel_abs="557462.084479" electricity_abs="0"/>
    </tripinfo>
    <tripinfo id="117" depart="18240.00" departLane="27167762_0" departPos="5.10" departSpeed="0.00" departDelay="0.00" arrival="18917.00" arrivalLane="27167762_0" arrivalPos="139.02" arrivalSpeed="22.16" duration="677.00" routeLength="5016.55" waitingTime="258.00" waitingCount="9" stopTime="3.00" timeLoss="339.99" rerouteNo="1" devices="vehroute_117 tripinfo_117 emissions_117" vType="vecType" speedFactor="1.00" vaporized="">
        <emissions CO_abs="65417.629735" CO2_abs="2106287.653583" HC_abs="347.389896" PMx_abs="43.022463" NOx_abs="882.174145" fuel_abs="671824.586970" electricity_abs="0"/>
    </tripinfo>
    <tripinfo id="99" depart="18180.00" departLane="-27029204_0" departPos="5.10" departSpeed="0.00" departDelay="0.00" arrival="18918.00" arrivalLane="-27029204_0" arrivalPos="195.60" arrivalSpeed="11.56" duration="738.00" routeLength="5700.35" waitingTime="209.00" waitingCount="9" stopTime="3.00" timeLoss="321.20" rerouteNo="1" devices="vehroute_99 tripinfo_99 emissions_99" vType="vecType" speedFactor="1.10" vaporized="">
        <emissions CO_abs="59633.194185" CO2_abs="2137671.318835" HC_abs="320.984662" PMx_abs="40.925329" NOx_abs="885.036600" fuel_abs="681833.022275" electricity_abs="0"/>
    </tripinfo>
    <tripinfo id="100" depart="18183.00" departLane="90077241_0" departPos="5.10" departSpeed="0.00" departDelay="3.00" arrival="18920.00" arrivalLane="90077241_0" arrivalPos="3225.35" arrivalSpeed="30.21" duration="737.00" routeLength="12218.00" waitingTime="167.00" waitingCount="5" stopTime="7.00" timeLoss="223.27" rerouteNo="1" devices="vehroute_100 tripinfo_100 emissions_100" vType="vecType" speedFactor="1.06" vaporized="">
        <emissions CO_abs="72933.859964" CO2_abs="3333068.629630" HC_abs="414.556879" PMx_abs="73.506534" NOx_abs="1313.424669" fuel_abs="1063104.048001" electricity_abs="0"/>
    </tripinfo>
    <tripinfo id="53" depart="18060.00" departLane="-27029200#2_0" departPos="5.10" departSpeed="0.00" departDelay="0.00" arrival="18929.00" arrivalLane="-27029200#2_0" arrivalPos="66.62" arrivalSpeed="12.07" duration="869.00" routeLength="6523.13" waitingTime="257.00" waitingCount="11" stopTime="3.00" timeLoss="383.96" rerouteNo="1" devices="vehroute_53 tripinfo_53 emissions_53" vType="vecType" speedFactor="1.10" vaporized="">
        <emissions CO_abs="70658.897871" CO2_abs="2502804.537556" HC_abs="379.611673" PMx_abs="47.697799" NOx_abs="1035.665899" fuel_abs="798296.865625" electricity_abs="0"/>
    </tripinfo>