<?xml version="1.0" encoding="UTF-8"?>

<!-- generated on 2022-12-20 00:35:52 by Eclipse SUMO sumo Version 1.14.1
<configuration xmlns:xsi="http://www.w3.org/2001/XMLSchema-instance" xsi:noNamespaceSchemaLocation="http://sumo.dlr.de/xsd/sumoConfiguration.xsd">

    <input>
        <net-file value="./strategia2_config/../san_francisco.net.xml"/>
        <route-files value="./strategia2_config/../san_francisco.rou.xml"/>
        <additional-files value="./strategia2_config/../san_francisco.poly.xml,./strategia2_config/../parking_capacity_100%25/off_parking_100%25.add.xml,./strategia2_config/../parking_capacity_100%25/on_parking_100%25.add.xml"/>
    </input>

    <output>
        <emission-output value="./strategia2_config/../output/strategia2/100%25/emissions.xml"/>
        <tripinfo-output value="./strategia2_config/../output/strategia2/100%25/tripinfo.xml"/>
        <vehroute-output value="./strategia2_config/../output/strategia2/100%25/vehroute.xml"/>
        <stop-output value="./strategia2_config/../output/strategia2/100%25/stops.xml"/>
        <collision-output value="./strategia2_config/../output/strategia2/100%25/collision.xml"/>
        <statistic-output value="./strategia2_config/../output/strategia2/100%25/statistic.xml"/>
    </output>

    <time>
        <step-length value="1"/>
    </time>

    <processing>
        <ignore-route-errors value="false"/>
        <time-to-teleport value="-1"/>
    </processing>

    <report>
        <verbose value="true"/>
        <xml-validation value="never"/>
    </report>

    <traci_server>
        <remote-port value="63180"/>
    </traci_server>

    <gui_only>
        <gui-settings-file value="./strategia2_config/../gui-settings.cfg"/>
        <start value="true"/>
    </gui_only>

</configuration>
-->

<tripinfos xmlns:xsi="http://www.w3.org/2001/XMLSchema-instance" xsi:noNamespaceSchemaLocation="http://sumo.dlr.de/xsd/tripinfo_file.xsd">
    <tripinfo id="30" depart="18000.00" departLane="-91181760#0_0" departPos="5.10" departSpeed="0.00" departDelay="0.00" arrival="18335.00" arrivalLane="-91181760#0_0" arrivalPos="79.70" arrivalSpeed="12.36" duration="335.00" routeLength="3660.42" waitingTime="5.00" waitingCount="2" stopTime="3.00" timeLoss="53.99" rerouteNo="1" devices="vehroute_30 tripinfo_30 emissions_30" vType="vecType" speedFactor="1.18" vaporized="">
        <emissions CO_abs="13805.268700" CO2_abs="998853.179364" HC_abs="85.688508" PMx_abs="16.409572" NOx_abs="397.782060" fuel_abs="318588.834187" electricity_abs="0"/>
    </tripinfo>
    <tripinfo id="1" depart="18000.00" departLane="31129765_0" departPos="5.10" departSpeed="0.00" departDelay="0.00" arrival="18353.00" arrivalLane="31129765_0" arrivalPos="639.51" arrivalSpeed="20.54" duration="353.00" routeLength="4341.32" waitingTime="36.00" waitingCount="2" stopTime="3.00" timeLoss="82.17" rerouteNo="1" devices="vehroute_1 tripinfo_1 emissions_1" vType="vecType" speedFactor="0.94" vaporized="">
        <emissions CO_abs="20937.653466" CO2_abs="1194329.927671" HC_abs="122.329930" PMx_abs="21.838005" NOx_abs="472.839470" fuel_abs="380938.351677" electricity_abs="0"/>
    </tripinfo>
    <tripinfo id="45" depart="18060.00" departLane="31129765_0" departPos="5.10" departSpeed="0.00" departDelay="0.00" arrival="18364.00" arrivalLane="31129765_0" arrivalPos="639.51" arrivalSpeed="24.12" duration="304.00" routeLength="4234.28" waitingTime="40.00" waitingCount="1" stopTime="3.00" timeLoss="78.14" rerouteNo="1" devices="vehroute_45 tripinfo_45 emissions_45" vType="vecType" speedFactor="1.09" vaporized="">
        <emissions CO_abs="22904.684074" CO2_abs="1295092.608960" HC_abs="134.928613" PMx_abs="25.778270" NOx_abs="520.975573" fuel_abs="413075.618952" electricity_abs="0"/>
    </tripinfo>
    <tripinfo id="60" depart="18060.00" departLane="8916792_0" departPos="5.10" departSpeed="0.00" departDelay="0.00" arrival="18487.00" arrivalLane="8916792_0" arrivalPos="615.11" arrivalSpeed="11.27" duration="427.00" routeLength="3743.73" waitingTime="71.00" waitingCount="3" stopTime="3.00" timeLoss="114.61" rerouteNo="1" devices="vehroute_60 tripinfo_60 emissions_60" vType="vecType" speedFactor="1.08" vaporized="">
        <emissions CO_abs="22274.164704" CO2_abs="1019711.903906" HC_abs="124.563783" PMx_abs="16.255780" NOx_abs="403.160505" fuel_abs="325247.616311" electricity_abs="0"/>
    </tripinfo>
    <tripinfo id="74" depart="18120.00" departLane="144489137#0_0" departPos="5.10" departSpeed="0.00" departDelay="0.00" arrival="18540.00" arrivalLane="144489137#0_0" arrivalPos="135.49" arrivalSpeed="9.74" duration="420.00" routeLength="2278.79" waitingTime="158.00" waitingCount="6" stopTime="3.00" timeLoss="206.16" rerouteNo="2" devices="vehroute_74 tripinfo_74 emissions_74" vType="vecType" speedFactor="0.96" vaporized="">
        <emissions CO_abs="37724.893495" CO2_abs="1059563.446274" HC_abs="196.362345" PMx_abs="20.686033" NOx_abs="448.014543" fuel_abs="337963.281213" electricity_abs="0"/>
    </tripinfo>
    <tripinfo id="76" depart="18120.00" departLane="225806031#0_0" departPos="5.10" departSpeed="0.00" departDelay="0.00" arrival="18577.00" arrivalLane="225806031#0_0" arrivalPos="142.16" arrivalSpeed="10.31" duration="457.00" routeLength="3181.76" waitingTime="122.00" waitingCount="5" stopTime="3.00" timeLoss="179.61" rerouteNo="1" devices="vehroute_76 tripinfo_76 emissions_76" vType="vecType" speedFactor="1.03" vaporized="">
        <emissions CO_abs="33512.819068" CO2_abs="1188595.912739" HC_abs="179.982615" PMx_abs="21.162117" NOx_abs="487.336888" fuel_abs="379116.976056" electricity_abs="0"/>
    </tripinfo>
    <tripinfo id="21" depart="18000.00" departLane="27167762_0" departPos="5.10" departSpeed="0.00" departDelay="0.00" arrival="18621.00" arrivalLane="27167762_0" arrivalPos="139.02" arrivalSpeed="22.16" duration="621.00" routeLength="5420.07" waitingTime="170.00" waitingCount="8" stopTime="3.00" timeLoss="252.27" rerouteNo="2" devices="vehroute_21 tripinfo_21 emissions_21" vType="vecType" speedFactor="1.01" vaporized="">
        <emissions CO_abs="51855.355764" CO2_abs="1973348.444347" HC_abs="282.603602" PMx_abs="38.604863" NOx_abs="813.393101" fuel_abs="629418.272319" electricity_abs="0"/>
    </tripinfo>
    <tripinfo id="10" depart="18000.00" departLane="90077241_0" departPos="5.10" departSpeed="0.00" departDelay="0.00" arrival="18640.00" arrivalLane="90077241_0" arrivalPos="3225.35" arrivalSpeed="30.49" duration="640.00" routeLength="11810.95" waitingTime="102.00" waitingCount="5" stopTime="3.00" timeLoss="178.48" rerouteNo="2" devices="vehroute_10 tripinfo_10 emissions_10" vType="vecType" speedFactor="1.09" vaporized="">
        <emissions CO_abs="64419.835529" CO2_abs="3139954.497625" HC_abs="371.307451" PMx_abs="70.128415" NOx_abs="1229.389563" fuel_abs="1001506.288493" electricity_abs="0"/>
    </tripinfo>
    <tripinfo id="49" depart="18063.00" departLane="31129765_0" departPos="5.10" departSpeed="0.00" departDelay="3.00" arrival="18647.00" arrivalLane="31129765_0" arrivalPos="639.51" arrivalSpeed="18.39" duration="584.00" routeLength="12944.78" waitingTime="1.00" waitingCount="1" stopTime="3.00" timeLoss="35.15" rerouteNo="1" devices="vehroute_49 tripinfo_49 emissions_49" vType="vecType" speedFactor="0.85" vaporized="">
        <emissions CO_abs="24060.806035" CO2_abs="2476296.352875" HC_abs="165.339939" PMx_abs="45.504312" NOx_abs="905.624854" fuel_abs="789821.475599" electricity_abs="0"/>
    </tripinfo>
    <tripinfo id="93" depart="18120.00" departLane="-254758121#2_0" departPos="5.10" departSpeed="0.00" departDelay="0.00" arrival="18673.00" arrivalLane="-254758121#2_0" arrivalPos="99.35" arrivalSpeed="9.71" duration="553.00" routeLength="4284.51" waitingTime="72.00" waitingCount="3" stopTime="3.00" timeLoss="133.81" rerouteNo="2" devices="vehroute_93 tripinfo_93 emissions_93" vType="vecType" speedFactor="0.92" vaporized="">
        <emissions CO_abs="30215.148983" CO2_abs="1315509.192689" HC_abs="167.810048" PMx_abs="21.397685" NOx_abs="529.083960" fuel_abs="419595.190001" electricity_abs="0"/>
    </tripinfo>
    <tripinfo id="16" depart="18006.00" departLane="90077241_0" departPos="5.10" departSpeed="0.00" departDelay="6.00" arrival="18688.00" arrivalLane="90077241_0" arrivalPos="3225.35" arrivalSpeed="24.89" duration="682.00" routeLength="11625.26" waitingTime="98.00" waitingCount="3" stopTime="3.00" timeLoss="154.71" rerouteNo="1" devices="vehroute_16 tripinfo_16 emissions_16" vType="vecType" speedFactor="0.88" vaporized="">
        <emissions CO_abs="45031.735753" CO2_abs="2695975.105630" HC_abs="267.286162" PMx_abs="52.345167" NOx_abs="1029.232277" fuel_abs="859896.074178" electricity_abs="0"/>
    </tripinfo>
    <tripinfo id="28" depart="18009.00" departLane="90077241_0" departPos="5.10" departSpeed="0.00" departDelay="9.00" arrival="18690.00" arrivalLane="90077241_0" arrivalPos="3225.35" arrivalSpeed="32.15" duration="681.00" routeLength="12386.24" waitingTime="145.00" waitingCount="4" stopTime="3.00" timeLoss="211.45" rerouteNo="3" devices="vehroute_28 tripinfo_28 emissions_28" vType="vecType" speedFactor="1.13" vaporized="">
        <emissions CO_abs="75169.547831" CO2_abs="3409244.759258" HC_abs="427.208471" PMx_abs="77.999940" NOx_abs="1340.770346" fuel_abs="1087399.642998" electricity_abs="0"/>
    </tripinfo>
    <tripinfo id="36" depart="18009.00" departLane="123867455_0" departPos="5.10" departSpeed="0.00" departDelay="9.00" arrival="18704.00" arrivalLane="123867455_0" arrivalPos="904.85" arrivalSpeed="27.89" duration="695.00" routeLength="5901.75" waitingTime="225.00" waitingCount="7" stopTime="3.00" timeLoss="308.27" rerouteNo="2" devices="vehroute_36 tripinfo_36 emissions_36" vType="vecType" speedFactor="0.97" vaporized="">
        <emissions CO_abs="61087.776518" CO2_abs="2129780.112245" HC_abs="328.418882" PMx_abs="42.340573" NOx_abs="874.167737" fuel_abs="679316.718424" electricity_abs="0"/>
    </tripinfo>
    <tripinfo id="31" depart="18006.00" departLane="123867455_0" departPos="5.10" departSpeed="0.00" departDelay="6.00" arrival="18708.00" arrivalLane="123867455_0" arrivalPos="904.85" arrivalSpeed="33.23" duration="702.00" routeLength="7632.90" waitingTime="129.00" waitingCount="7" stopTime="3.00" timeLoss="234.26" rerouteNo="1" devices="vehroute_31 tripinfo_31 emissions_31" vType="vecType" speedFactor="1.15" vaporized="">
        <emissions CO_abs="50518.533864" CO2_abs="2362651.759271" HC_abs="284.621396" PMx_abs="44.898593" NOx_abs="950.694207" fuel_abs="753585.314349" electricity_abs="0"/>
    </tripinfo>
    <tripinfo id="13" depart="18003.00" departLane="90077241_0" departPos="5.10" departSpeed="0.00" departDelay="3.00" arrival="18748.00" arrivalLane="90077241_0" arrivalPos="3225.35" arrivalSpeed="31.99" duration="745.00" routeLength="12752.38" waitingTime="148.00" waitingCount="6" stopTime="3.00" timeLoss="221.65" rerouteNo="1" devices="vehroute_13 tripinfo_13 emissions_13" vType="vecType" speedFactor="1.12" vaporized="">
        <emissions CO_abs="76548.439539" CO2_abs="3498186.400387" HC_abs="434.864353" PMx_abs="78.446383" NOx_abs="1384.633951" fuel_abs="1115768.067243" electricity_abs="0"/>
    </tripinfo>
    <tripinfo id="63" depart="18063.00" departLane="-204967525_0" departPos="5.10" departSpeed="0.00" departDelay="3.00" arrival="18749.00" arrivalLane="-204967525_1" arrivalPos="146.26" arrivalSpeed="10.58" duration="686.00" routeLength="4830.14" waitingTime="149.00" waitingCount="8" stopTime="3.00" timeLoss="244.82" rerouteNo="1" devices="vehroute_63 tripinfo_63 emissions_63" vType="vecType" speedFactor="0.99" vaporized="">
        <emissions CO_abs="45572.296073" CO2_abs="1639432.756722" HC_abs="245.302629" PMx_abs="28.442346" NOx_abs="668.950477" fuel_abs="522917.119019" electricity_abs="0"/>
    </tripinfo>
    <tripinfo id="77" depart="18120.00" departLane="90077241_0" departPos="5.10" departSpeed="0.00" departDelay="0.00" arrival="18751.00" arrivalLane="90077241_0" arrivalPos="3225.35" arrivalSpeed="27.87" duration="631.00" routeLength="11810.95" waitingTime="52.00" waitingCount="3" stopTime="3.00" timeLoss="118.19" rerouteNo="1" devices="vehroute_77 tripinfo_77 emissions_77" vType="vecType" speedFactor="0.98" vaporized="">
        <emissions CO_abs="45736.284426" CO2_abs="2790526.637707" HC_abs="275.912339" PMx_abs="57.497485" NOx_abs="1069.585494" fuel_abs="890051.627634" electricity_abs="0"/>
    </tripinfo>
    <tripinfo id="15" depart="18000.00" departLane="-24310636#2_0" departPos="5.10" departSpeed="0.00" departDelay="0.00" arrival="18752.00" arrivalLane="-24310636#2_1" arrivalPos="108.36" arrivalSpeed="10.30" duration="752.00" routeLength="6010.81" waitingTime="145.00" waitingCount="8" stopTime="3.00" timeLoss="229.00" rerouteNo="1" devices="vehroute_15 tripinfo_15 emissions_15" vType="vecType" speedFactor="0.93" vaporized="">
        <emissions CO_abs="47589.193893" CO2_abs="1883992.103939" HC_abs="260.070279" PMx_abs="32.762899" NOx_abs="762.369397" fuel_abs="600919.629927" electricity_abs="0"/>
    </tripinfo>
    <tripinfo id="39" depart="18006.00" departLane="31129765_0" departPos="5.10" departSpeed="0.00" departDelay="6.00" arrival="18759.00" arrivalLane="31129765_0" arrivalPos="639.51" arrivalSpeed="20.02" duration="753.00" routeLength="6533.65" waitingTime="227.00" waitingCount="8" stopTime="3.00" timeLoss="305.92" rerouteNo="3" devices="vehroute_39 tripinfo_39 emissions_39" vType="vecType" speedFactor="0.90" vaporized="">
        <emissions CO_abs="61144.496444" CO2_abs="2211901.384705" HC_abs="329.172267" PMx_abs="42.290638" NOx_abs="899.954080" fuel_abs="705510.066312" electricity_abs="0"/>
    </tripinfo>
    <tripinfo id="33" depart="18000.00" departLane="144489137#0_0" departPos="5.10" departSpeed="0.00" departDelay="0.00" arrival="18780.00" arrivalLane="144489137#0_0" arrivalPos="135.49" arrivalSpeed="12.86" duration="780.00" routeLength="3872.00" waitingTime="387.00" waitingCount="14" stopTime="3.00" timeLoss="484.29" rerouteNo="1" devices="vehroute_33 tripinfo_33 emissions_33" vType="vecType" speedFactor="1.17" vaporized="">
        <emissions CO_abs="81963.527304" CO2_abs="2152341.935209" HC_abs="422.352072" PMx_abs="44.018888" NOx_abs="917.627759" fuel_abs="686522.346389" electricity_abs="0"/>
    </tripinfo>
    <tripinfo id="82" depart="18123.00" departLane="-133781749_0" departPos="5.10" departSpeed="0.00" departDelay="3.00" arrival="18784.00" arrivalLane="-133781749_0" arrivalPos="138.68" arrivalSpeed="10.40" duration="661.00" routeLength="5499.56" waitingTime="120.00" waitingCount="8" stopTime="3.00" timeLoss="228.49" rerouteNo="1" devices="vehroute_82 tripinfo_82 emissions_82" vType="vecType" speedFactor="1.02" vaporized="">
        <emissions CO_abs="45108.130358" CO2_abs="1851782.105769" HC_abs="248.236861" PMx_abs="33.272265" NOx_abs="754.198224" fuel_abs="590643.769376" electricity_abs="0"/>
    </tripinfo>
    <tripinfo id="27" depart="18000.00" departLane="-8916048_0" departPos="5.10" departSpeed="0.00" departDelay="0.00" arrival="18793.00" arrivalLane="-8916048_0" arrivalPos="126.72" arrivalSpeed="10.04" duration="793.00" routeLength="6742.86" waitingTime="122.00" waitingCount="4" stopTime="3.00" timeLoss="212.28" rerouteNo="1" devices="vehroute_27 tripinfo_27 emissions_27" vType="vecType" speedFactor="0.95" vaporized="">
        <emissions CO_abs="45439.868550" CO2_abs="2005973.524284" HC_abs="252.922562" PMx_abs="33.388862" NOx_abs="802.000631" fuel_abs="639825.243448" electricity_abs="0"/>
    </tripinfo>
    <tripinfo id="0" depart="18000.00" departLane="84823308_0" departPos="5.10" departSpeed="0.00" departDelay="0.00" arrival="18794.00" arrivalLane="84823308_0" arrivalPos="275.63" arrivalSpeed="11.80" duration="794.00" routeLength="5732.03" waitingTime="218.00" waitingCount="8" stopTime="3.00" timeLoss="307.25" rerouteNo="2" devices="vehroute_0 tripinfo_0 emissions_0" vType="vecType" speedFactor="1.06" vaporized="">
        <emissions CO_abs="56477.016292" CO2_abs="2018184.615779" HC_abs="303.425485" PMx_abs="35.626410" NOx_abs="823.849635" fuel_abs="643724.477879" electricity_abs="0"/>
    </tripinfo>
    <tripinfo id="40" depart="18000.00" departLane="-206679802#4_0" departPos="5.10" departSpeed="0.00" departDelay="0.00" arrival="18826.00" arrivalLane="-206679802#4_0" arrivalPos="292.11" arrivalSpeed="10.24" duration="826.00" routeLength="6024.23" waitingTime="207.00" waitingCount="7" stopTime="3.00" timeLoss="301.48" rerouteNo="2" devices="vehroute_40 tripinfo_40 emissions_40" vType="vecType" speedFactor="1.03" vaporized="">
        <emissions CO_abs="57054.724428" CO2_abs="2090300.128050" HC_abs="307.978959" PMx_abs="36.595536" NOx_abs="852.815448" fuel_abs="666725.910525" electricity_abs="0"/>
    </tripinfo>
    <tripinfo id="84" depart="18123.00" departLane="90077241_0" departPos="5.10" departSpeed="0.00" departDelay="3.00" arrival="18849.00" arrivalLane="90077241_0" arrivalPos="3225.35" arrivalSpeed="33.28" duration="726.00" routeLength="12280.95" waitingTime="179.00" waitingCount="6" stopTime="3.00" timeLoss="247.74" rerouteNo="1" devices="vehroute_84 tripinfo_84 emissions_84" vType="vecType" speedFactor="1.15" vaporized="">
        <emissions CO_abs="83066.576895" CO2_abs="3501318.451790" HC_abs="464.937374" PMx_abs="80.735001" NOx_abs="1393.430641" fuel_abs="1116769.116849" electricity_abs="0"/>
    </tripinfo>
    <tripinfo id="24" depart="18003.00" departLane="123867455_0" departPos="5.10" departSpeed="0.00" departDelay="3.00" arrival="18859.00" arrivalLane="123867455_0" arrivalPos="904.85" arrivalSpeed="23.87" duration="856.00" routeLength="6219.34" waitingTime="231.00" waitingCount="10" stopTime="3.00" timeLoss="334.82" rerouteNo="2" devices="vehroute_24 tripinfo_24 emissions_24" vType="vecType" speedFactor="0.83" vaporized="">
        <emissions CO_abs="69761.761254" CO2_abs="2317039.518572" HC_abs="370.931214" PMx_abs="44.253382" NOx_abs="950.561834" fuel_abs="739048.103124" electricity_abs="0"/>
    </tripinfo>
    <tripinfo id="47" depart="18060.00" departLane="90077241_0" departPos="5.10" departSpeed="0.00" departDelay="0.00" arrival="18868.00" arrivalLane="90077241_0" arrivalPos="3225.35" arrivalSpeed="25.16" duration="808.00" routeLength="12217.48" waitingTime="139.00" waitingCount="5" stopTime="3.00" timeLoss="205.43" rerouteNo="2" devices="vehroute_47 tripinfo_47 emissions_47" vType="vecType" speedFactor="0.90" vaporized="">
        <emissions CO_abs="55552.682360" CO2_abs="2965317.914047" HC_abs="321.770785" PMx_abs="57.537931" NOx_abs="1139.071820" fuel_abs="945808.026807" electricity_abs="0"/>
    </tripinfo>
    <tripinfo id="64" depart="18060.00" departLane="28319343#2_0" departPos="5.10" departSpeed="0.00" departDelay="0.00" arrival="18872.00" arrivalLane="28319343#2_0" arrivalPos="90.58" arrivalSpeed="9.54" duration="812.00" routeLength="9974.14" waitingTime="207.00" waitingCount="8" stopTime="3.00" timeLoss="282.66" rerouteNo="2" devices="vehroute_64 tripinfo_64 emissions_64" vType="vecType" speedFactor="0.94" vaporized="">
        <emissions CO_abs="64744.832118" CO2_abs="2771426.654523" HC_abs="359.669300" PMx_abs="54.983905" NOx_abs="1092.258718" fuel_abs="883970.665978" electricity_abs="0"/>
    </tripinfo>
    <tripinfo id="9" depart="18000.00" departLane="23959829#0_0" departPos="5.10" departSpeed="0.00" departDelay="0.00" arrival="18876.00" arrivalLane="23959829#0_0" arrivalPos="45.86" arrivalSpeed="8.88" duration="876.00" routeLength="6745.88" waitingTime="130.00" waitingCount="7" stopTime="3.00" timeLoss="233.63" rerouteNo="2" devices="vehroute_9 tripinfo_9 emissions_9" vType="vecType" speedFactor="0.86" vaporized="">
        <emissions CO_abs="50831.230089" CO2_abs="2077703.609317" HC_abs="278.461867" PMx_abs="34.057087" NOx_abs="830.339815" fuel_abs="662706.896928" electricity_abs="0"/>
    </tripinfo>
    <tripinfo id="56" depart="18066.00" departLane="31129765_0" departPos="5.10" departSpeed="0.00" departDelay="6.00" arrival="18878.00" arrivalLane="31129765_0" arrivalPos="639.51" arrivalSpeed="19.96" duration="812.00" routeLength="6840.91" waitingTime="245.00" waitingCount="9" stopTime="3.00" timeLoss="333.23" rerouteNo="2" devices="vehroute_56 tripinfo_56 emissions_56" vType="vecType" speedFactor="0.90" vaporized="">
        <emissions CO_abs="66422.698051" CO2_abs="2363122.232709" HC_abs="356.782734" PMx_abs="45.401849" NOx_abs="965.768825" fuel_abs="753743.850151" electricity_abs="0"/>
    </tripinfo>
    <tripinfo id="73" depart="18120.00" departLane="-204967525_0" departPos="5.10" departSpeed="0.00" departDelay="0.00" arrival="18878.00" arrivalLane="-204967525_1" arrivalPos="146.26" arrivalSpeed="11.68" duration="758.00" routeLength="5090.57" waitingTime="233.00" waitingCount="8" stopTime="3.00" timeLoss="322.99" rerouteNo="1" devices="vehroute_73 tripinfo_73 emissions_73" vType="vecType" speedFactor="1.06" vaporized="">
        <emissions CO_abs="59805.084626" CO2_abs="2025119.656777" HC_abs="319.128414" PMx_abs="37.747984" NOx_abs="841.685372" fuel_abs="645936.042766" electricity_abs="0"/>
    </tripinfo>
    <tripinfo id="12" depart="18000.00" departLane="-23883761_0" departPos="5.10" departSpeed="0.00" departDelay="0.00" arrival="18881.00" arrivalLane="-23883761_0" arrivalPos="197.88" arrivalSpeed="10.55" duration="881.00" routeLength="5849.00" waitingTime="275.00" waitingCount="11" stopTime="3.00" timeLoss="377.88" rerouteNo="2" devices="vehroute_12 tripinfo_12 emissions_12" vType="vecType" speedFactor="1.05" vaporized="">
        <emissions CO_abs="69398.956400" CO2_abs="2283101.191972" HC_abs="368.715636" PMx_abs="41.920491" NOx_abs="944.096857" fuel_abs="728224.374697" electricity_abs="0"/>
    </tripinfo>
    <tripinfo id="42" depart="18009.00" departLane="31129765_0" departPos="5.10" departSpeed="0.00" departDelay="9.00" arrival="18891.00" arrivalLane="31129765_0" arrivalPos="639.51" arrivalSpeed="24.05" duration="882.00" routeLength="7763.38" waitingTime="301.00" waitingCount="12" stopTime="3.00" timeLoss="410.87" rerouteNo="1" devices="vehroute_42 tripinfo_42 emissions_42" vType="vecType" speedFactor="1.09" vaporized="">
        <emissions CO_abs="82016.059723" CO2_abs="2911462.423188" HC_abs="441.974584" PMx_abs="59.368472" NOx_abs="1208.754322" fuel_abs="928639.853977" electricity_abs="0"/>
    </tripinfo>
    <tripinfo id="29" depart="18000.00" departLane="-35977367#2_0" departPos="5.10" departSpeed="0.00" departDelay="0.00" arrival="18893.00" arrivalLane="-35977367#2_0" arrivalPos="431.73" arrivalSpeed="9.90" duration="893.00" routeLength="6070.29" waitingTime="211.00" waitingCount="8" stopTime="3.00" timeLoss="306.92" rerouteNo="2" devices="vehroute_29 tripinfo_29 emissions_29" vType="vecType" speedFactor="0.93" vaporized="">
        <emissions CO_abs="60738.992266" CO2_abs="2131008.454888" HC_abs="325.590982" PMx_abs="36.764843" NOx_abs="869.925885" fuel_abs="679712.234346" electricity_abs="0"/>
    </tripinfo>
    <tripinfo id="85" depart="18126.00" departLane="90077241_0" departPos="5.10" departSpeed="0.00" departDelay="6.00" arrival="18893.00" arrivalLane="90077241_0" arrivalPos="3225.35" arrivalSpeed="27.20" duration="767.00" routeLength="11984.76" waitingTime="162.00" waitingCount="7" stopTime="3.00" timeLoss="234.37" rerouteNo="1" devices="vehroute_85 tripinfo_85 emissions_85" vType="vecType" speedFactor="0.98" vaporized="">
        <emissions CO_abs="64720.304803" CO2_abs="3103101.357781" HC_abs="369.871914" PMx_abs="64.866151" NOx_abs="1212.148489" fuel_abs="989755.393252" electricity_abs="0"/>
    </tripinfo>
    <tripinfo id="99" depart="18180.00" departLane="-27029204_0" departPos="5.10" departSpeed="0.00" departDelay="0.00" arrival="18917.00" arrivalLane="-27029204_0" arrivalPos="195.60" arrivalSpeed="11.01" duration="737.00" routeLength="5700.35" waitingTime="224.00" waitingCount="9" stopTime="3.00" timeLoss="319.75" rerouteNo="1" devices="vehroute_99 tripinfo_99 emissions_99" vType="vecType" speedFactor="1.10" vaporized="">
        <emissions CO_abs="61048.257707" CO2_abs="2172384.837275" HC_abs="328.340459" PMx_abs="41.668656" NOx_abs="899.738738" fuel_abs="692905.454624" electricity_abs="0"/>
    </tripinfo>
    <tripinfo id="20" depart="18000.00" departLane="123867455_0" departPos="5.10" departSpeed="0.00" departDelay="0.00" arrival="18926.00" arrivalLane="123867455_0" arrivalPos="904.85" arrivalSpeed="28.29" duration="926.00" routeLength="7628.28" waitingTime="301.00" waitingCount="12" stopTime="3.00" timeLoss="404.71" rerouteNo="2" devices="vehroute_20 tripinfo_20 emissions_20" vType="vecType" speedFactor="1.02" vaporized="">
        <emissions CO_abs="81155.855590" CO2_abs="2838780.294546" HC_abs="436.666540" PMx_abs="56.028254" NOx_abs="1165.571153" fuel_abs="905460.239067" electricity_abs="0"/>
    </tripinfo>
    <tripinfo id="53" depart="18060.00" departLane="-27029200#2_0" departPos="5.10" departSpeed="0.00" departDelay="0.00" arrival="18931.00" arrivalLane="-27029200#2_0" arrivalPos="66.62" arrivalSpeed="11.90" duration="871.00" routeLength="6523.13" waitingTime="272.00" waitingCount="11" stopTime="3.00" timeLoss="385.24" rerouteNo="2" devices="vehroute_53 tripinfo_53 emissions_53" vType="vecType" speedFactor="1.10" vaporized="">
        <emissions CO_abs="71942.524593" CO2_abs="2499685.728990" HC_abs="385.554239" PMx_abs="47.748313" NOx_abs="1035.666844" fuel_abs="797302.799478" electricity_abs="0"/>
    </tripinfo>
    <tripinfo id="88" depart="18123.00" departLane="31129765_0" departPos="5.10" departSpeed="0.00" departDelay="3.00" arrival="18931.00" arrivalLane="31129765_0" arrivalPos="639.51" arrivalSpeed="21.23" duration="808.00" routeLength="6946.37" waitingTime="281.00" waitingCount="9" stopTime="3.00" timeLoss="370.94" rerouteNo="1" devices="vehroute_88 tripinfo_88 emissions_88" vType="vecType" speedFactor="1.01" vaporized="">
        <emissions CO_abs="72399.034917" CO2_abs="2531375.577311" HC_abs="388.967271" PMx_abs="50.424246" NOx_abs="1039.553274" fuel_abs="807409.628018" electricity_abs="0"/>
    </tripinfo>
    <tripinfo id="23" depart="18000.00" departLane="133733582#2_0" departPos="5.10" departSpeed="0.00" departDelay="0.00" arrival="18954.00" arrivalLane="133733582#2_0" arrivalPos="149.99" arrivalSpeed="9.39" duration="954.00" routeLength="6926.78" waitingTime="212.00" waitingCount="11" stopTime="3.00" timeLoss="316.58" rerouteNo="1" devices="vehroute_23 tripinfo_23 emissions_23" vType="vecType" speedFactor="0.89" vaporized="">
        <emissions CO_abs="64349.277830" CO2_abs="2321805.288299" HC_abs="346.077237" PMx_abs="40.211651" NOx_abs="941.897879" fuel_abs="740568.321843" electricity_abs="0"/>
    </tripinfo>
    <tripinfo id="43" depart="18012.00" departLane="123867455_0" departPos="5.10" departSpeed="0.00" departDelay="12.00" arrival="18954.00" arrivalLane="123867455_0" arrivalPos="904.85" arrivalSpeed="30.13" duration="942.00" routeLength="8280.56" waitingTime="233.00" waitingCount="12" stopTime="3.00" timeLoss="366.60" rerouteNo="2" devices="vehroute_43 tripinfo_43 emissions_43" vType="vecType" speedFactor="1.04" vaporized="">
        <emissions CO_abs="73382.143136" CO2_abs="2863202.934591" HC_abs="401.239825" PMx_abs="55.110973" NOx_abs="1173.390366" fuel_abs="913245.669477" electricity_abs="0"/>
    </tripinfo>
    <tripinfo id="68" depart="18060.00" departLane="27167762_0" departPos="5.10" departSpeed="0.00" departDelay="0.00" arrival="18954.00" arrivalLane="27167762_0" arrivalPos="139.02" arrivalSpeed="22.08" duration="894.00" routeLength="6786.77" waitingTime="305.00" waitingCount="12" stopTime="6.00" timeLoss="414.62" rerouteNo="2" devices="vehroute_68 tripinfo_68 emissions_68" vType="vecType" speedFactor="1.04" vaporized="">
        <emissions CO_abs="79974.909030" CO2_abs="2711123.026618" HC_abs="427.553204" PMx_abs="53.784981" NOx_abs="1128.503871" fuel_abs="864742.655042" electricity_abs="0"/>
    </tripinfo>
    <tripinfo id="90" depart="18120.00" departLane="-254758120#3_0" departPos="5.10" departSpeed="0.00" departDelay="0.00" arrival="18957.00" arrivalLane="-254758120#3_0" arrivalPos="147.41" arrivalSpeed="10.10" duration="837.00" routeLength="5221.94" waitingTime="284.00" waitingCount="10" stopTime="3.00" timeLoss="374.01" rerouteNo="1" devices="vehroute_90 tripinfo_90 emissions_90" vType="vecType" speedFactor="1.02" vaporized="">
        <emissions CO_abs="67228.503016" CO2_abs="2038882.834931" HC_abs="353.203190" PMx_abs="37.759435" NOx_abs="845.952753" fuel_abs="650330.705856" electricity_abs="0"/>
    </tripinfo>
    <tripinfo id="3" depart="18000.00" departLane="-133781749_0" departPos="5.10" departSpeed="0.00" departDelay="0.00" arrival="18959.00" arrivalLane="-133781749_0" arrivalPos="138.68" arrivalSpeed="11.05" duration="959.00" routeLength="7501.04" waitingTime="256.00" waitingCount="14" stopTime="3.00" timeLoss="386.61" rerouteNo="1" devices="vehroute_3 tripinfo_3 emissions_3" vType="vecType" speedFactor="1.08" vaporized="">
        <emissions CO_abs="73139.881139" CO2_abs="2711208.492675" HC_abs="395.949732" PMx_abs="50.608982" NOx_abs="1117.268265" fuel_abs="864768.503342" electricity_abs="0"/>
    </tripinfo>
    <tripinfo id="75" depart="18120.00" departLane="-254297762#2_0" departPos="5.10" departSpeed="0.00" departDelay="0.00" arrival="18961.00" arrivalLane="-254297762#2_0" arrivalPos="291.17" arrivalSpeed="9.94" duration="841.00" routeLength="5758.38" waitingTime="210.00" waitingCount="10" stopTime="3.00" timeLoss="314.76" rerouteNo="2" devices="vehroute_75 tripinfo_75 emissions_75" vType="vecType" speedFactor="0.98" vaporized="">
        <emissions CO_abs="60195.382238" CO2_abs="2094151.681605" HC_abs="322.491391" PMx_abs="37.323503" NOx_abs="861.201303" fuel_abs="667955.395448" electricity_abs="0"/>
    </tripinfo>