<?xml version="1.0" encoding="UTF-8"?>

<!-- generated on 2022-12-24 13:09:23 by Eclipse SUMO sumo Version 1.14.1
<configuration xmlns:xsi="http://www.w3.org/2001/XMLSchema-instance" xsi:noNamespaceSchemaLocation="http://sumo.dlr.de/xsd/sumoConfiguration.xsd">

    <input>
        <net-file value="./strategia2_config/../san_francisco.net.xml"/>
        <route-files value="./strategia2_config/../san_francisco.rou.xml"/>
        <additional-files value="./strategia2_config/../san_francisco.poly.xml,./strategia2_config/../parking_capacity_100%25/off_parking_100%25.add.xml,./strategia2_config/../parking_capacity_100%25/on_parking_100%25.add.xml"/>
    </input>

    <output>
        <emission-output value="./strategia2_config/../output/strategia2/100%25/emissions.xml"/>
        <tripinfo-output value="./strategia2_config/../output/strategia2/100%25/tripinfo.xml"/>
        <vehroute-output value="./strategia2_config/../output/strategia2/100%25/vehroute.xml"/>
        <stop-output value="./strategia2_config/../output/strategia2/100%25/stops.xml"/>
        <collision-output value="./strategia2_config/../output/strategia2/100%25/collision.xml"/>
        <statistic-output value="./strategia2_config/../output/strategia2/100%25/statistic.xml"/>
    </output>

    <time>
        <step-length value="1"/>
    </time>

    <processing>
        <ignore-route-errors value="false"/>
    </processing>

    <report>
        <verbose value="true"/>
        <xml-validation value="never"/>
    </report>

    <traci_server>
        <remote-port value="51920"/>
    </traci_server>

    <gui_only>
        <gui-settings-file value="./strategia2_config/../gui-settings.cfg"/>
        <start value="true"/>
    </gui_only>

</configuration>
-->

<tripinfos xmlns:xsi="http://www.w3.org/2001/XMLSchema-instance" xsi:noNamespaceSchemaLocation="http://sumo.dlr.de/xsd/tripinfo_file.xsd">
    <tripinfo id="30" depart="18000.00" departLane="-91181760#0_0" departPos="5.10" departSpeed="0.00" departDelay="0.00" arrival="18421.00" arrivalLane="-91181760#0_0" arrivalPos="79.70" arrivalSpeed="12.71" duration="421.00" routeLength="3660.42" waitingTime="1.00" waitingCount="1" stopTime="100.00" timeLoss="43.03" rerouteNo="1" devices="vehroute_30 tripinfo_30 emissions_30" vType="vecType" speedFactor="1.18" vaporized="">
        <emissions CO_abs="11968.899973" CO2_abs="955691.787864" HC_abs="76.051828" PMx_abs="15.144071" NOx_abs="376.107495" fuel_abs="304822.185234" electricity_abs="0"/>
    </tripinfo>
    <tripinfo id="1" depart="18000.00" departLane="31129765_0" departPos="5.10" departSpeed="0.00" departDelay="0.00" arrival="18443.00" arrivalLane="31129765_0" arrivalPos="639.51" arrivalSpeed="20.81" duration="443.00" routeLength="4341.32" waitingTime="32.00" waitingCount="2" stopTime="100.00" timeLoss="74.21" rerouteNo="1" devices="vehroute_1 tripinfo_1 emissions_1" vType="vecType" speedFactor="0.94" vaporized="">
        <emissions CO_abs="20351.983589" CO2_abs="1185685.703277" HC_abs="119.781821" PMx_abs="21.857042" NOx_abs="472.137607" fuel_abs="378180.708739" electricity_abs="0"/>
    </tripinfo>
    <tripinfo id="45" depart="18060.00" departLane="31129765_0" departPos="5.10" departSpeed="0.00" departDelay="0.00" arrival="18463.00" arrivalLane="31129765_0" arrivalPos="639.51" arrivalSpeed="24.11" duration="403.00" routeLength="4234.28" waitingTime="40.00" waitingCount="1" stopTime="100.00" timeLoss="79.26" rerouteNo="1" devices="vehroute_45 tripinfo_45 emissions_45" vType="vecType" speedFactor="1.09" vaporized="">
        <emissions CO_abs="22810.037891" CO2_abs="1282276.707161" HC_abs="134.194085" PMx_abs="25.711372" NOx_abs="516.906694" fuel_abs="408987.819103" electricity_abs="0"/>
    </tripinfo>
    <tripinfo id="60" depart="18060.00" departLane="8916792_0" departPos="5.10" departSpeed="0.00" departDelay="0.00" arrival="18578.00" arrivalLane="8916792_0" arrivalPos="615.11" arrivalSpeed="11.43" duration="518.00" routeLength="3743.73" waitingTime="49.00" waitingCount="3" stopTime="100.00" timeLoss="108.26" rerouteNo="1" devices="vehroute_60 tripinfo_60 emissions_60" vType="vecType" speedFactor="1.08" vaporized="">
        <emissions CO_abs="20201.446500" CO2_abs="1002619.931908" HC_abs="114.851176" PMx_abs="15.713288" NOx_abs="395.619563" fuel_abs="319795.114224" electricity_abs="0"/>
    </tripinfo>
    <tripinfo id="21" depart="18000.00" departLane="27167762_0" departPos="5.10" departSpeed="0.00" departDelay="0.00" arrival="18627.00" arrivalLane="27167762_0" arrivalPos="139.02" arrivalSpeed="22.05" duration="627.00" routeLength="5201.43" waitingTime="109.00" waitingCount="5" stopTime="100.00" timeLoss="180.32" rerouteNo="1" devices="vehroute_21 tripinfo_21 emissions_21" vType="vecType" speedFactor="1.01" vaporized="">
        <emissions CO_abs="38648.743940" CO2_abs="1705917.618061" HC_abs="215.725842" PMx_abs="31.993875" NOx_abs="691.603381" fuel_abs="544116.407826" electricity_abs="0"/>
    </tripinfo>
    <tripinfo id="74" depart="18120.00" departLane="144489137#0_0" departPos="5.10" departSpeed="0.00" departDelay="0.00" arrival="18630.00" arrivalLane="144489137#0_0" arrivalPos="135.49" arrivalSpeed="9.74" duration="510.00" routeLength="2278.79" waitingTime="149.00" waitingCount="6" stopTime="100.00" timeLoss="199.57" rerouteNo="2" devices="vehroute_74 tripinfo_74 emissions_74" vType="vecType" speedFactor="0.96" vaporized="">
        <emissions CO_abs="36593.616647" CO2_abs="1046290.987349" HC_abs="190.877718" PMx_abs="20.049409" NOx_abs="439.793161" fuel_abs="333729.861064" electricity_abs="0"/>
    </tripinfo>
    <tripinfo id="28" depart="18009.00" departLane="90077241_0" departPos="5.10" departSpeed="0.00" departDelay="9.00" arrival="18659.00" arrivalLane="90077241_0" arrivalPos="3225.35" arrivalSpeed="32.59" duration="650.00" routeLength="11899.33" waitingTime="65.00" waitingCount="2" stopTime="100.00" timeLoss="122.81" rerouteNo="2" devices="vehroute_28 tripinfo_28 emissions_28" vType="vecType" speedFactor="1.13" vaporized="">
        <emissions CO_abs="61220.176915" CO2_abs="3123176.703504" HC_abs="357.132231" PMx_abs="72.193310" NOx_abs="1226.653767" fuel_abs="996151.283133" electricity_abs="0"/>
    </tripinfo>
    <tripinfo id="76" depart="18120.00" departLane="225806031#0_0" departPos="5.10" departSpeed="0.00" departDelay="0.00" arrival="18666.00" arrivalLane="225806031#0_0" arrivalPos="142.16" arrivalSpeed="11.52" duration="546.00" routeLength="3181.76" waitingTime="116.00" waitingCount="5" stopTime="100.00" timeLoss="171.36" rerouteNo="1" devices="vehroute_76 tripinfo_76 emissions_76" vType="vecType" speedFactor="1.03" vaporized="">
        <emissions CO_abs="32663.939499" CO2_abs="1182997.502299" HC_abs="175.992155" PMx_abs="21.158888" NOx_abs="485.618180" fuel_abs="377330.751417" electricity_abs="0"/>
    </tripinfo>
    <tripinfo id="39" depart="18006.00" departLane="31129765_0" departPos="5.10" departSpeed="0.00" departDelay="6.00" arrival="18669.00" arrivalLane="31129765_0" arrivalPos="639.51" arrivalSpeed="18.93" duration="663.00" routeLength="5869.49" waitingTime="129.00" waitingCount="4" stopTime="100.00" timeLoss="184.89" rerouteNo="2" devices="vehroute_39 tripinfo_39 emissions_39" vType="vecType" speedFactor="0.90" vaporized="">
        <emissions CO_abs="40340.311206" CO2_abs="1741608.142907" HC_abs="223.255926" PMx_abs="32.418482" NOx_abs="694.536685" fuel_abs="555501.452496" electricity_abs="0"/>
    </tripinfo>
    <tripinfo id="93" depart="18120.00" departLane="-254758121#2_0" departPos="5.10" departSpeed="0.00" departDelay="0.00" arrival="18674.00" arrivalLane="-254758121#2_0" arrivalPos="99.35" arrivalSpeed="9.81" duration="554.00" routeLength="3841.81" waitingTime="34.00" waitingCount="1" stopTime="100.00" timeLoss="80.68" rerouteNo="2" devices="vehroute_93 tripinfo_93 emissions_93" vType="vecType" speedFactor="0.92" vaporized="">
        <emissions CO_abs="20526.160545" CO2_abs="1048582.597470" HC_abs="117.447816" PMx_abs="15.892515" NOx_abs="413.829214" fuel_abs="334455.297326" electricity_abs="0"/>
    </tripinfo>
    <tripinfo id="10" depart="18000.00" departLane="90077241_0" departPos="5.10" departSpeed="0.00" departDelay="0.00" arrival="18731.00" arrivalLane="90077241_0" arrivalPos="3225.35" arrivalSpeed="31.44" duration="731.00" routeLength="11810.95" waitingTime="93.00" waitingCount="5" stopTime="100.00" timeLoss="171.94" rerouteNo="1" devices="vehroute_10 tripinfo_10 emissions_10" vType="vecType" speedFactor="1.09" vaporized="">
        <emissions CO_abs="62812.940773" CO2_abs="3124471.357947" HC_abs="363.702149" PMx_abs="69.679781" NOx_abs="1215.787355" fuel_abs="996567.680442" electricity_abs="0"/>
    </tripinfo>
    <tripinfo id="49" depart="18063.00" departLane="31129765_0" departPos="5.10" departSpeed="0.00" departDelay="3.00" arrival="18744.00" arrivalLane="31129765_0" arrivalPos="639.51" arrivalSpeed="18.46" duration="681.00" routeLength="12944.78" waitingTime="0.00" waitingCount="0" stopTime="100.00" timeLoss="35.02" rerouteNo="1" devices="vehroute_49 tripinfo_49 emissions_49" vType="vecType" speedFactor="0.85" vaporized="">
        <emissions CO_abs="23084.294204" CO2_abs="2488224.287902" HC_abs="160.907806" PMx_abs="45.203903" NOx_abs="901.713381" fuel_abs="793626.156470" electricity_abs="0"/>
    </tripinfo>
    <tripinfo id="16" depart="18006.00" departLane="90077241_0" departPos="5.10" departSpeed="0.00" departDelay="6.00" arrival="18780.00" arrivalLane="90077241_0" arrivalPos="3225.35" arrivalSpeed="25.14" duration="774.00" routeLength="11625.26" waitingTime="92.00" waitingCount="2" stopTime="100.00" timeLoss="149.56" rerouteNo="1" devices="vehroute_16 tripinfo_16 emissions_16" vType="vecType" speedFactor="0.88" vaporized="">
        <emissions CO_abs="43273.703809" CO2_abs="2653135.447509" HC_abs="257.395293" PMx_abs="51.088683" NOx_abs="1006.448469" fuel_abs="846232.014067" electricity_abs="0"/>
    </tripinfo>
    <tripinfo id="36" depart="18009.00" departLane="123867455_0" departPos="5.10" departSpeed="0.00" departDelay="9.00" arrival="18792.00" arrivalLane="123867455_0" arrivalPos="904.85" arrivalSpeed="28.25" duration="783.00" routeLength="5901.75" waitingTime="215.00" waitingCount="7" stopTime="100.00" timeLoss="299.27" rerouteNo="2" devices="vehroute_36 tripinfo_36 emissions_36" vType="vecType" speedFactor="0.97" vaporized="">
        <emissions CO_abs="60412.169331" CO2_abs="2135485.835556" HC_abs="325.464704" PMx_abs="42.557354" NOx_abs="877.761768" fuel_abs="681135.917623" electricity_abs="0"/>
    </tripinfo>
    <tripinfo id="47" depart="18060.00" departLane="90077241_0" departPos="5.10" departSpeed="0.00" departDelay="0.00" arrival="18795.00" arrivalLane="90077241_0" arrivalPos="3225.35" arrivalSpeed="25.05" duration="735.00" routeLength="11565.45" waitingTime="55.00" waitingCount="3" stopTime="100.00" timeLoss="100.08" rerouteNo="1" devices="vehroute_47 tripinfo_47 emissions_47" vType="vecType" speedFactor="0.90" vaporized="">
        <emissions CO_abs="37714.189509" CO2_abs="2542181.204461" HC_abs="231.146506" PMx_abs="49.136872" NOx_abs="961.596945" fuel_abs="810840.706043" electricity_abs="0"/>
    </tripinfo>
    <tripinfo id="31" depart="18006.00" departLane="123867455_0" departPos="5.10" departSpeed="0.00" departDelay="6.00" arrival="18806.00" arrivalLane="123867455_0" arrivalPos="904.85" arrivalSpeed="32.39" duration="800.00" routeLength="7632.90" waitingTime="133.00" waitingCount="7" stopTime="100.00" timeLoss="235.18" rerouteNo="1" devices="vehroute_31 tripinfo_31 emissions_31" vType="vecType" speedFactor="1.15" vaporized="">
        <emissions CO_abs="50822.803958" CO2_abs="2359935.581109" HC_abs="285.891234" PMx_abs="45.088595" NOx_abs="953.705514" fuel_abs="752718.715988" electricity_abs="0"/>
    </tripinfo>
    <tripinfo id="68" depart="18060.00" departLane="27167762_0" departPos="5.10" departSpeed="0.00" departDelay="0.00" arrival="18806.00" arrivalLane="27167762_0" arrivalPos="139.02" arrivalSpeed="22.58" duration="746.00" routeLength="5366.29" waitingTime="195.00" waitingCount="7" stopTime="100.00" timeLoss="294.88" rerouteNo="1" devices="vehroute_68 tripinfo_68 emissions_68" vType="vecType" speedFactor="1.04" vaporized="">
        <emissions CO_abs="58222.112793" CO2_abs="2115152.145734" HC_abs="314.828742" PMx_abs="42.658696" NOx_abs="881.701477" fuel_abs="674647.966218" electricity_abs="0"/>
    </tripinfo>
    <tripinfo id="13" depart="18003.00" departLane="90077241_0" departPos="5.10" departSpeed="0.00" departDelay="3.00" arrival="18836.00" arrivalLane="90077241_0" arrivalPos="3225.35" arrivalSpeed="32.35" duration="833.00" routeLength="12752.38" waitingTime="140.00" waitingCount="6" stopTime="100.00" timeLoss="213.02" rerouteNo="1" devices="vehroute_13 tripinfo_13 emissions_13" vType="vecType" speedFactor="1.12" vaporized="">
        <emissions CO_abs="75925.304133" CO2_abs="3506802.105573" HC_abs="432.509231" PMx_abs="78.696639" NOx_abs="1384.551861" fuel_abs="1118515.836708" electricity_abs="0"/>
    </tripinfo>
    <tripinfo id="20" depart="18000.00" departLane="123867455_0" departPos="5.10" departSpeed="0.00" departDelay="0.00" arrival="18837.00" arrivalLane="123867455_0" arrivalPos="904.85" arrivalSpeed="28.72" duration="837.00" routeLength="6690.85" waitingTime="211.00" waitingCount="9" stopTime="100.00" timeLoss="301.49" rerouteNo="1" devices="vehroute_20 tripinfo_20 emissions_20" vType="vecType" speedFactor="1.02" vaporized="">
        <emissions CO_abs="62679.693822" CO2_abs="2360771.726630" HC_abs="341.423493" PMx_abs="46.441850" NOx_abs="962.637841" fuel_abs="752991.695531" electricity_abs="0"/>
    </tripinfo>
    <tripinfo id="63" depart="18063.00" departLane="-204967525_0" departPos="5.10" departSpeed="0.00" departDelay="3.00" arrival="18840.00" arrivalLane="-204967525_1" arrivalPos="146.26" arrivalSpeed="10.32" duration="777.00" routeLength="4830.14" waitingTime="142.00" waitingCount="8" stopTime="100.00" timeLoss="238.60" rerouteNo="1" devices="vehroute_63 tripinfo_63 emissions_63" vType="vecType" speedFactor="0.99" vaporized="">
        <emissions CO_abs="44982.687435" CO2_abs="1653266.741091" HC_abs="242.898991" PMx_abs="28.318297" NOx_abs="672.267195" fuel_abs="527329.423086" electricity_abs="0"/>
    </tripinfo>
    <tripinfo id="77" depart="18120.00" departLane="90077241_0" departPos="5.10" departSpeed="0.00" departDelay="0.00" arrival="18840.00" arrivalLane="90077241_0" arrivalPos="3225.35" arrivalSpeed="27.59" duration="720.00" routeLength="11810.95" waitingTime="52.00" waitingCount="4" stopTime="100.00" timeLoss="110.88" rerouteNo="1" devices="vehroute_77 tripinfo_77 emissions_77" vType="vecType" speedFactor="0.98" vaporized="">
        <emissions CO_abs="44640.855720" CO2_abs="2767063.551006" HC_abs="270.554904" PMx_abs="56.788430" NOx_abs="1055.218621" fuel_abs="882568.089133" electricity_abs="0"/>
    </tripinfo>
    <tripinfo id="15" depart="18000.00" departLane="-24310636#2_0" departPos="5.10" departSpeed="0.00" departDelay="0.00" arrival="18846.00" arrivalLane="-24310636#2_1" arrivalPos="108.36" arrivalSpeed="9.45" duration="846.00" routeLength="6010.81" waitingTime="135.00" waitingCount="8" stopTime="100.00" timeLoss="225.47" rerouteNo="1" devices="vehroute_15 tripinfo_15 emissions_15" vType="vecType" speedFactor="0.93" vaporized="">
        <emissions CO_abs="46327.646092" CO2_abs="1873213.214893" HC_abs="253.908951" PMx_abs="32.016011" NOx_abs="754.415191" fuel_abs="597481.494724" electricity_abs="0"/>
    </tripinfo>
    <tripinfo id="33" depart="18000.00" departLane="144489137#0_0" departPos="5.10" departSpeed="0.00" departDelay="0.00" arrival="18871.00" arrivalLane="144489137#0_0" arrivalPos="135.49" arrivalSpeed="12.95" duration="871.00" routeLength="3872.00" waitingTime="372.00" waitingCount="16" stopTime="100.00" timeLoss="477.59" rerouteNo="1" devices="vehroute_33 tripinfo_33 emissions_33" vType="vecType" speedFactor="1.17" vaporized="">
        <emissions CO_abs="81000.155262" CO2_abs="2159388.298001" HC_abs="418.362779" PMx_abs="44.018187" NOx_abs="919.762786" fuel_abs="688769.333367" electricity_abs="0"/>
    </tripinfo>
    <tripinfo id="82" depart="18123.00" departLane="-133781749_0" departPos="5.10" departSpeed="0.00" departDelay="3.00" arrival="18873.00" arrivalLane="-133781749_0" arrivalPos="138.68" arrivalSpeed="11.29" duration="750.00" routeLength="5499.56" waitingTime="118.00" waitingCount="9" stopTime="100.00" timeLoss="220.66" rerouteNo="1" devices="vehroute_82 tripinfo_82 emissions_82" vType="vecType" speedFactor="1.02" vaporized="">
        <emissions CO_abs="44380.160425" CO2_abs="1846466.507156" HC_abs="244.881006" PMx_abs="33.252943" NOx_abs="752.010408" fuel_abs="588947.917711" electricity_abs="0"/>
    </tripinfo>
    <tripinfo id="56" depart="18066.00" departLane="31129765_0" departPos="5.10" departSpeed="0.00" departDelay="6.00" arrival="18876.00" arrivalLane="31129765_0" arrivalPos="639.51" arrivalSpeed="20.05" duration="810.00" routeLength="6622.27" waitingTime="188.00" waitingCount="5" stopTime="100.00" timeLoss="256.93" rerouteNo="1" devices="vehroute_56 tripinfo_56 emissions_56" vType="vecType" speedFactor="0.90" vaporized="">
        <emissions CO_abs="53103.654463" CO2_abs="2091791.982392" HC_abs="289.227953" PMx_abs="38.829773" NOx_abs="838.944556" fuel_abs="667198.343169" electricity_abs="0"/>
    </tripinfo>
    <tripinfo id="27" depart="18000.00" departLane="-8916048_0" departPos="5.10" departSpeed="0.00" departDelay="0.00" arrival="18882.00" arrivalLane="-8916048_0" arrivalPos="126.72" arrivalSpeed="9.84" duration="882.00" routeLength="6742.86" waitingTime="115.00" waitingCount="4" stopTime="100.00" timeLoss="204.37" rerouteNo="1" devices="vehroute_27 tripinfo_27 emissions_27" vType="vecType" speedFactor="0.95" vaporized="">
        <emissions CO_abs="44223.964123" CO2_abs="1980017.410519" HC_abs="246.629323" PMx_abs="32.911085" NOx_abs="790.615188" fuel_abs="631545.962743" electricity_abs="0"/>
    </tripinfo>
    <tripinfo id="0" depart="18000.00" departLane="84823308_0" departPos="5.10" departSpeed="0.00" departDelay="0.00" arrival="18884.00" arrivalLane="84823308_0" arrivalPos="275.63" arrivalSpeed="11.45" duration="884.00" routeLength="5732.03" waitingTime="205.00" waitingCount="8" stopTime="100.00" timeLoss="300.03" rerouteNo="2" devices="vehroute_0 tripinfo_0 emissions_0" vType="vecType" speedFactor="1.06" vaporized="">
        <emissions CO_abs="55082.100279" CO2_abs="2003352.318086" HC_abs="296.687350" PMx_abs="34.923648" NOx_abs="814.685442" fuel_abs="638993.439886" electricity_abs="0"/>
    </tripinfo>
    <tripinfo id="40" depart="18000.00" departLane="-206679802#4_0" departPos="5.10" departSpeed="0.00" departDelay="0.00" arrival="18917.00" arrivalLane="-206679802#4_0" arrivalPos="292.11" arrivalSpeed="11.31" duration="917.00" routeLength="6024.23" waitingTime="203.00" waitingCount="7" stopTime="100.00" timeLoss="295.04" rerouteNo="2" devices="vehroute_40 tripinfo_40 emissions_40" vType="vecType" speedFactor="1.03" vaporized="">
        <emissions CO_abs="56426.380752" CO2_abs="2082561.730606" HC_abs="304.988740" PMx_abs="36.630084" NOx_abs="850.743354" fuel_abs="664257.215344" electricity_abs="0"/>
    </tripinfo>
    <tripinfo id="2" depart="18000.00" departLane="142972028#1_0" departPos="5.10" departSpeed="0.00" departDelay="0.00" arrival="18938.00" arrivalLane="142972028#1_0" arrivalPos="161.20" arrivalSpeed="10.10" duration="938.00" routeLength="6732.31" waitingTime="181.00" waitingCount="13" stopTime="100.00" timeLoss="299.52" rerouteNo="2" devices="vehroute_2 tripinfo_2 emissions_2" vType="vecType" speedFactor="1.01" vaporized="">
        <emissions CO_abs="58510.721988" CO2_abs="2309776.808627" HC_abs="319.756280" PMx_abs="41.076028" NOx_abs="938.177378" fuel_abs="736727.500518" electricity_abs="0"/>
    </tripinfo>
    <tripinfo id="84" depart="18123.00" departLane="90077241_0" departPos="5.10" departSpeed="0.00" departDelay="3.00" arrival="18939.00" arrivalLane="90077241_0" arrivalPos="3225.35" arrivalSpeed="33.33" duration="816.00" routeLength="12280.95" waitingTime="167.00" waitingCount="6" stopTime="100.00" timeLoss="240.78" rerouteNo="1" devices="vehroute_84 tripinfo_84 emissions_84" vType="vecType" speedFactor="1.15" vaporized="">
        <emissions CO_abs="82035.712984" CO2_abs="3494769.169087" HC_abs="460.111338" PMx_abs="80.462623" NOx_abs="1389.747664" fuel_abs="1114679.783453" electricity_abs="0"/>
    </tripinfo>
    <tripinfo id="114" depart="18240.00" departLane="-254758120#3_0" departPos="5.10" departSpeed="0.00" departDelay="0.00" arrival="18953.00" arrivalLane="-254758120#3_0" arrivalPos="147.41" arrivalSpeed="11.84" duration="713.00" routeLength="3346.72" waitingTime="269.00" waitingCount="9" stopTime="100.00" timeLoss="339.45" rerouteNo="2" devices="vehroute_114 tripinfo_114 emissions_114" vType="vecType" speedFactor="1.10" vaporized="">
        <emissions CO_abs="58819.718518" CO2_abs="1616206.769709" HC_abs="304.827393" PMx_abs="31.832034" NOx_abs="681.639119" fuel_abs="515513.570478" electricity_abs="0"/>
    </tripinfo>
    <tripinfo id="64" depart="18060.00" departLane="28319343#2_0" departPos="5.10" departSpeed="0.00" departDelay="0.00" arrival="18962.00" arrivalLane="28319343#2_0" arrivalPos="90.58" arrivalSpeed="9.56" duration="902.00" routeLength="9974.14" waitingTime="202.00" waitingCount="7" stopTime="100.00" timeLoss="275.79" rerouteNo="2" devices="vehroute_64 tripinfo_64 emissions_64" vType="vecType" speedFactor="0.94" vaporized="">
        <emissions CO_abs="62583.267063" CO2_abs="2704767.613878" HC_abs="348.314020" PMx_abs="53.324336" NOx_abs="1060.307069" fuel_abs="862709.397780" electricity_abs="0"/>
    </tripinfo>
    <tripinfo id="12" depart="18000.00" departLane="-23883761_0" departPos="5.10" departSpeed="0.00" departDelay="0.00" arrival="18973.00" arrivalLane="-23883761_0" arrivalPos="197.88" arrivalSpeed="11.43" duration="973.00" routeLength="5849.00" waitingTime="275.00" waitingCount="10" stopTime="100.00" timeLoss="372.47" rerouteNo="1" devices="vehroute_12 tripinfo_12 emissions_12" vType="vecType" speedFactor="1.05" vaporized="">
        <emissions CO_abs="67999.495871" CO2_abs="2225056.363109" HC_abs="360.913105" PMx_abs="40.716145" NOx_abs="918.811580" fuel_abs="709710.658770" electricity_abs="0"/>
    </tripinfo>
    <tripinfo id="79" depart="18120.00" departLane="-24310636#2_0" departPos="5.10" departSpeed="0.00" departDelay="0.00" arrival="18976.00" arrivalLane="-24310636#2_1" arrivalPos="108.36" arrivalSpeed="11.70" duration="856.00" routeLength="6581.41" waitingTime="170.00" waitingCount="8" stopTime="102.00" timeLoss="262.97" rerouteNo="1" devices="vehroute_79 tripinfo_79 emissions_79" vType="vecType" speedFactor="1.09" vaporized="">
        <emissions CO_abs="52482.174282" CO2_abs="2172237.511107" HC_abs="289.063638" PMx_abs="39.558361" NOx_abs="884.683843" fuel_abs="692855.554161" electricity_abs="0"/>
    </tripinfo>
    <tripinfo id="104" depart="18180.00" departLane="8915254_0" departPos="5.10" departSpeed="0.00" departDelay="0.00" arrival="18976.00" arrivalLane="8915254_0" arrivalPos="317.12" arrivalSpeed="19.62" duration="796.00" routeLength="5663.72" waitingTime="143.00" waitingCount="5" stopTime="100.00" timeLoss="224.36" rerouteNo="2" devices="vehroute_104 tripinfo_104 emissions_104" vType="vecType" speedFactor="0.89" vaporized="">
        <emissions CO_abs="47161.475533" CO2_abs="1855849.082217" HC_abs="257.214440" PMx_abs="32.960599" NOx_abs="752.971898" fuel_abs="591942.518128" electricity_abs="0"/>
    </tripinfo>
    <tripinfo id="85" depart="18126.00" departLane="90077241_0" departPos="5.10" departSpeed="0.00" departDelay="6.00" arrival="18977.00" arrivalLane="90077241_0" arrivalPos="3225.35" arrivalSpeed="27.50" duration="851.00" routeLength="11984.76" waitingTime="154.00" waitingCount="6" stopTime="100.00" timeLoss="221.87" rerouteNo="1" devices="vehroute_85 tripinfo_85 emissions_85" vType="vecType" speedFactor="0.98" vaporized="">
        <emissions CO_abs="61595.640743" CO2_abs="3047357.594305" HC_abs="353.400828" PMx_abs="62.896658" NOx_abs="1177.260159" fuel_abs="971975.601792" electricity_abs="0"/>
    </tripinfo>
    <tripinfo id="42" depart="18009.00" departLane="31129765_0" departPos="5.10" departSpeed="0.00" departDelay="9.00" arrival="18983.00" arrivalLane="31129765_0" arrivalPos="639.51" arrivalSpeed="24.39" duration="974.00" routeLength="7763.38" waitingTime="293.00" waitingCount="12" stopTime="100.00" timeLoss="405.50" rerouteNo="1" devices="vehroute_42 tripinfo_42 emissions_42" vType="vecType" speedFactor="1.09" vaporized="">
        <emissions CO_abs="80138.309787" CO2_abs="2870777.006929" HC_abs="432.216894" PMx_abs="58.253366" NOx_abs="1183.552754" fuel_abs="915663.088777" electricity_abs="0"/>
    </tripinfo>
    <tripinfo id="29" depart="18000.00" departLane="-35977367#2_0" departPos="5.10" departSpeed="0.00" departDelay="0.00" arrival="18985.00" arrivalLane="-35977367#2_0" arrivalPos="431.73" arrivalSpeed="9.18" duration="985.00" routeLength="6070.29" waitingTime="209.00" waitingCount="7" stopTime="100.00" timeLoss="301.51" rerouteNo="2" devices="vehroute_29 tripinfo_29 emissions_29" vType="vecType" speedFactor="0.93" vaporized="">
        <emissions CO_abs="60125.392218" CO2_abs="2127351.334263" HC_abs="322.652062" PMx_abs="36.290792" NOx_abs="865.652833" fuel_abs="678545.899099" electricity_abs="0"/>
    </tripinfo>
    <tripinfo id="105" depart="18183.00" departLane="8915254_0" departPos="5.10" departSpeed="0.00" departDelay="3.00" arrival="19007.00" arrivalLane="8915254_0" arrivalPos="317.12" arrivalSpeed="23.50" duration="824.00" routeLength="5890.78" waitingTime="218.00" waitingCount="9" stopTime="100.00" timeLoss="311.37" rerouteNo="1" devices="vehroute_105 tripinfo_105 emissions_105" vType="vecType" speedFactor="1.07" vaporized="">
        <emissions CO_abs="59763.883544" CO2_abs="2193449.354040" HC_abs="322.638767" PMx_abs="41.821757" NOx_abs="902.374022" fuel_abs="699623.550360" electricity_abs="0"/>
    </tripinfo>
    <tripinfo id="100" depart="18183.00" departLane="90077241_0" departPos="5.10" departSpeed="0.00" departDelay="3.00" arrival="19010.00" arrivalLane="90077241_0" arrivalPos="3225.35" arrivalSpeed="30.59" duration="827.00" routeLength="12218.00" waitingTime="153.00" waitingCount="6" stopTime="100.00" timeLoss="220.06" rerouteNo="1" devices="vehroute_100 tripinfo_100 emissions_100" vType="vecType" speedFactor="1.06" vaporized="">
        <emissions CO_abs="69261.124576" CO2_abs="3252780.666053" HC_abs="395.807023" PMx_abs="70.995495" NOx_abs="1269.790639" fuel_abs="1037495.846946" electricity_abs="0"/>
    </tripinfo>
    <tripinfo id="119" depart="18240.00" departLane="8916767#0_0" departPos="5.10" departSpeed="0.00" departDelay="0.00" arrival="19010.00" arrivalLane="8916767#0_0" arrivalPos="129.66" arrivalSpeed="11.09" duration="770.00" routeLength="5013.92" waitingTime="148.00" waitingCount="8" stopTime="100.00" timeLoss="250.82" rerouteNo="1" devices="vehroute_119 tripinfo_119 emissions_119" vType="vecType" speedFactor="1.07" vaporized="">
        <emissions CO_abs="46099.539368" CO2_abs="1743970.124458" HC_abs="249.850393" PMx_abs="30.703580" NOx_abs="712.179084" fuel_abs="556258.747605" electricity_abs="0"/>
    </tripinfo>
    <tripinfo id="88" depart="18123.00" departLane="31129765_0" departPos="5.10" departSpeed="0.00" departDelay="3.00" arrival="19017.00" arrivalLane="31129765_0" arrivalPos="639.51" arrivalSpeed="22.34" duration="894.00" routeLength="6946.37" waitingTime="269.00" waitingCount="10" stopTime="100.00" timeLoss="358.82" rerouteNo="1" devices="vehroute_88 tripinfo_88 emissions_88" vType="vecType" speedFactor="1.01" vaporized="">
        <emissions CO_abs="71554.246532" CO2_abs="2530878.693606" HC_abs="385.216441" PMx_abs="50.621620" NOx_abs="1041.331056" fuel_abs="807250.364770" electricity_abs="0"/>
    </tripinfo>
    <tripinfo id="135" depart="18360.00" departLane="90077241_0" departPos="5.10" departSpeed="0.00" departDelay="0.00" arrival="19018.00" arrivalLane="90077241_0" arrivalPos="3225.35" arrivalSpeed="28.16" duration="658.00" routeLength="11126.88" waitingTime="76.00" waitingCount="4" stopTime="100.00" timeLoss="123.73" rerouteNo="1" devices="vehroute_135 tripinfo_135 emissions_135" vType="vecType" speedFactor="1.01" vaporized="">
        <emissions CO_abs="46865.317244" CO2_abs="2641155.223620" HC_abs="278.423273" PMx_abs="56.422281" NOx_abs="1007.750947" fuel_abs="842410.393447" electricity_abs="0"/>
    </tripinfo>
    <tripinfo id="59" depart="18063.00" departLane="-27029200#2_0" departPos="5.10" departSpeed="0.00" departDelay="3.00" arrival="19035.00" arrivalLane="-27029200#2_0" arrivalPos="66.62" arrivalSpeed="10.01" duration="972.00" routeLength="7133.74" waitingTime="179.00" waitingCount="7" stopTime="100.00" timeLoss="270.56" rerouteNo="2" devices="vehroute_59 tripinfo_59 emissions_59" vType="vecType" speedFactor="0.97" vaporized="">
        <emissions CO_abs="54804.872874" CO2_abs="2197838.373059" HC_abs="300.161825" PMx_abs="37.766396" NOx_abs="886.474583" fuel_abs="701024.363911" electricity_abs="0"/>
    </tripinfo>
    <tripinfo id="53" depart="18060.00" departLane="-27029200#2_0" departPos="5.10" departSpeed="0.00" departDelay="0.00" arrival="19037.00" arrivalLane="-27029200#2_0" arrivalPos="66.62" arrivalSpeed="11.16" duration="977.00" routeLength="6523.13" waitingTime="249.00" waitingCount="12" stopTime="100.00" timeLoss="394.75" rerouteNo="1" devices="vehroute_53 tripinfo_53 emissions_53" vType="vecType" speedFactor="1.10" vaporized="">
        <emissions CO_abs="70620.482928" CO2_abs="2489136.393386" HC_abs="379.212295" PMx_abs="47.414690" NOx_abs="1034.111881" fuel_abs="793937.197315" electricity_abs="0"/>
    </tripinfo>