<?xml version="1.0" encoding="UTF-8"?>

<!-- generated on 2023-01-02 12:23:30 by Eclipse SUMO sumo Version 1.14.1
<configuration xmlns:xsi="http://www.w3.org/2001/XMLSchema-instance" xsi:noNamespaceSchemaLocation="http://sumo.dlr.de/xsd/sumoConfiguration.xsd">

    <input>
        <net-file value="./strategia2_config/../san_francisco.net.xml"/>
        <route-files value="./strategia2_config/../san_francisco.rou.xml"/>
        <additional-files value="./strategia2_config/../san_francisco.poly.xml,./strategia2_config/../parking_capacity_100%25/off_parking_100%25.add.xml,./strategia2_config/../parking_capacity_100%25/on_parking_100%25.add.xml"/>
    </input>

    <output>
        <emission-output value="./strategia2_config/../output/strategia2/100%25/emissions.xml"/>
        <tripinfo-output value="./strategia2_config/../output/strategia2/100%25/tripinfo.xml"/>
        <vehroute-output value="./strategia2_config/../output/strategia2/100%25/vehroute.xml"/>
        <stop-output value="./strategia2_config/../output/strategia2/100%25/stops.xml"/>
        <collision-output value="./strategia2_config/../output/strategia2/100%25/collision.xml"/>
        <statistic-output value="./strategia2_config/../output/strategia2/100%25/statistic.xml"/>
    </output>

    <time>
        <step-length value="1"/>
    </time>

    <processing>
        <ignore-route-errors value="false"/>
    </processing>

    <report>
        <verbose value="true"/>
        <xml-validation value="never"/>
    </report>

    <traci_server>
        <remote-port value="64115"/>
    </traci_server>

    <gui_only>
        <gui-settings-file value="./strategia2_config/../gui-settings.cfg"/>
        <start value="true"/>
    </gui_only>

</configuration>
-->

<tripinfos xmlns:xsi="http://www.w3.org/2001/XMLSchema-instance" xsi:noNamespaceSchemaLocation="http://sumo.dlr.de/xsd/tripinfo_file.xsd">
    <tripinfo id="301" depart="19800.00" departLane="-191296172#2_0" departPos="5.10" departSpeed="0.00" departDelay="0.00" arrival="20390.00" arrivalLane="-191296172#2_1" arrivalPos="137.04" arrivalSpeed="10.14" duration="590.00" routeLength="5517.32" waitingTime="25.00" waitingCount="2" stopTime="100.00" timeLoss="79.97" rerouteNo="2" devices="vehroute_301 tripinfo_301 emissions_301" vType="vecType" speedFactor="0.94" vaporized="">
        <emissions CO_abs="23209.364787" CO2_abs="1421562.872066" HC_abs="138.487290" PMx_abs="24.159273" NOx_abs="560.785068" fuel_abs="453416.127788" electricity_abs="0"/>
    </tripinfo>
    <tripinfo id="302" depart="19800.00" departLane="-254758139#0_0" departPos="5.10" departSpeed="0.00" departDelay="0.00" arrival="20510.00" arrivalLane="-254758139#0_0" arrivalPos="68.19" arrivalSpeed="10.58" duration="710.00" routeLength="10239.12" waitingTime="88.00" waitingCount="4" stopTime="100.00" timeLoss="146.33" rerouteNo="2" devices="vehroute_302 tripinfo_302 emissions_302" vType="vecType" speedFactor="1.01" vaporized="">
        <emissions CO_abs="46176.551497" CO2_abs="2541325.257196" HC_abs="271.753787" PMx_abs="51.767515" NOx_abs="978.354251" fuel_abs="810570.632872" electricity_abs="0"/>
    </tripinfo>
    <tripinfo id="306" depart="19800.00" departLane="204884387#0_0" departPos="5.10" departSpeed="0.00" departDelay="0.00" arrival="20628.00" arrivalLane="204884387#0_0" arrivalPos="132.79" arrivalSpeed="10.66" duration="828.00" routeLength="3970.57" waitingTime="295.00" waitingCount="12" stopTime="100.00" timeLoss="390.01" rerouteNo="2" devices="vehroute_306 tripinfo_306 emissions_306" vType="vecType" speedFactor="1.05" vaporized="">
        <emissions CO_abs="68961.302885" CO2_abs="1943747.678319" HC_abs="359.213430" PMx_abs="38.252321" NOx_abs="822.089312" fuel_abs="619986.431357" electricity_abs="0"/>
    </tripinfo>
    <tripinfo id="318" depart="19980.00" departLane="-88572970_0" departPos="5.10" departSpeed="0.00" departDelay="0.00" arrival="20713.00" arrivalLane="-88572970_1" arrivalPos="108.68" arrivalSpeed="10.23" duration="733.00" routeLength="9414.29" waitingTime="103.00" waitingCount="6" stopTime="100.00" timeLoss="159.48" rerouteNo="2" devices="vehroute_318 tripinfo_318 emissions_318" vType="vecType" speedFactor="0.94" vaporized="">
        <emissions CO_abs="43349.183330" CO2_abs="2301968.198260" HC_abs="251.307893" PMx_abs="44.606605" NOx_abs="883.572591" fuel_abs="734228.601533" electricity_abs="0"/>
    </tripinfo>
    <tripinfo id="314" depart="19920.00" departLane="144489137#7_0" departPos="5.10" departSpeed="0.00" departDelay="0.00" arrival="20726.00" arrivalLane="144489137#7_0" arrivalPos="146.84" arrivalSpeed="10.31" duration="806.00" routeLength="6184.53" waitingTime="174.00" waitingCount="8" stopTime="100.00" timeLoss="256.94" rerouteNo="2" devices="vehroute_314 tripinfo_314 emissions_314" vType="vecType" speedFactor="0.99" vaporized="">
        <emissions CO_abs="52788.186852" CO2_abs="2085888.474199" HC_abs="288.878547" PMx_abs="38.685583" NOx_abs="847.644897" fuel_abs="665314.882800" electricity_abs="0"/>
    </tripinfo>
    <tripinfo id="311" depart="19860.00" departLane="204884387#0_0" departPos="5.10" departSpeed="0.00" departDelay="0.00" arrival="20747.00" arrivalLane="204884387#0_0" arrivalPos="132.79" arrivalSpeed="10.40" duration="887.00" routeLength="10288.74" waitingTime="208.00" waitingCount="6" stopTime="100.00" timeLoss="282.50" rerouteNo="2" devices="vehroute_311 tripinfo_311 emissions_311" vType="vecType" speedFactor="1.03" vaporized="">
        <emissions CO_abs="69399.946589" CO2_abs="2945149.973767" HC_abs="387.362837" PMx_abs="61.381748" NOx_abs="1170.474352" fuel_abs="939379.463135" electricity_abs="0"/>
    </tripinfo>
    <tripinfo id="317" depart="19920.00" departLane="225518502#2_0" departPos="5.10" departSpeed="0.00" departDelay="0.00" arrival="20806.00" arrivalLane="225518502#2_0" arrivalPos="24.03" arrivalSpeed="9.36" duration="886.00" routeLength="5743.14" waitingTime="212.00" waitingCount="7" stopTime="100.00" timeLoss="296.64" rerouteNo="1" devices="vehroute_317 tripinfo_317 emissions_317" vType="vecType" speedFactor="0.94" vaporized="">
        <emissions CO_abs="57862.027772" CO2_abs="2014943.478986" HC_abs="309.876832" PMx_abs="36.120783" NOx_abs="822.689047" fuel_abs="642691.138959" electricity_abs="0"/>
    </tripinfo>
    <tripinfo id="326" depart="20100.00" departLane="88466052#1_0" departPos="5.10" departSpeed="0.00" departDelay="0.00" arrival="20808.00" arrivalLane="88466052#1_0" arrivalPos="202.96" arrivalSpeed="12.59" duration="708.00" routeLength="9458.72" waitingTime="158.00" waitingCount="8" stopTime="100.00" timeLoss="228.58" rerouteNo="2" devices="vehroute_326 tripinfo_326 emissions_326" vType="vecType" speedFactor="1.18" vaporized="">
        <emissions CO_abs="68980.313922" CO2_abs="2802584.611932" HC_abs="383.230935" PMx_abs="64.226564" NOx_abs="1112.223169" fuel_abs="893905.307736" electricity_abs="0"/>
    </tripinfo>
    <tripinfo id="313" depart="19920.00" departLane="-111089307#4_0" departPos="5.10" departSpeed="0.00" departDelay="0.00" arrival="20817.00" arrivalLane="-111089307#4_0" arrivalPos="126.42" arrivalSpeed="11.52" duration="897.00" routeLength="6276.74" waitingTime="242.00" waitingCount="9" stopTime="100.00" timeLoss="345.52" rerouteNo="2" devices="vehroute_313 tripinfo_313 emissions_313" vType="vecType" speedFactor="1.12" vaporized="">
        <emissions CO_abs="64845.606465" CO2_abs="2363163.951393" HC_abs="349.695893" PMx_abs="44.961443" NOx_abs="975.455192" fuel_abs="753755.986708" electricity_abs="0"/>
    </tripinfo>
    <tripinfo id="307" depart="19860.00" departLane="47172109#0_0" departPos="5.10" departSpeed="0.00" departDelay="0.00" arrival="20832.00" arrivalLane="47172109#0_0" arrivalPos="192.98" arrivalSpeed="9.14" duration="972.00" routeLength="5759.09" waitingTime="314.00" waitingCount="9" stopTime="100.00" timeLoss="402.72" rerouteNo="2" devices="vehroute_307 tripinfo_307 emissions_307" vType="vecType" speedFactor="0.89" vaporized="">
        <emissions CO_abs="76205.289635" CO2_abs="2283728.237633" HC_abs="399.286199" PMx_abs="44.241077" NOx_abs="947.974361" fuel_abs="728426.511833" electricity_abs="0"/>
    </tripinfo>
    <tripinfo id="319" depart="20040.00" departLane="8919179#1_0" departPos="5.10" departSpeed="0.00" departDelay="0.00" arrival="20899.00" arrivalLane="8919179#1_0" arrivalPos="11.27" arrivalSpeed="9.87" duration="859.00" routeLength="5970.33" waitingTime="198.00" waitingCount="11" stopTime="100.00" timeLoss="297.69" rerouteNo="1" devices="vehroute_319 tripinfo_319 emissions_319" vType="vecType" speedFactor="1.16" vaporized="">
        <emissions CO_abs="54651.565279" CO2_abs="2090798.112887" HC_abs="295.940686" PMx_abs="37.686743" NOx_abs="855.499883" fuel_abs="666882.153679" electricity_abs="0"/>
    </tripinfo>
    <tripinfo id="303" depart="19800.00" departLane="-204967525_0" departPos="5.10" departSpeed="0.00" departDelay="0.00" arrival="20907.00" arrivalLane="-204967525_1" arrivalPos="146.26" arrivalSpeed="11.91" duration="1107.00" routeLength="6958.17" waitingTime="306.00" waitingCount="14" stopTime="100.00" timeLoss="431.80" rerouteNo="2" devices="vehroute_303 tripinfo_303 emissions_303" vType="vecType" speedFactor="1.08" vaporized="">
        <emissions CO_abs="77191.157235" CO2_abs="2600857.974147" HC_abs="411.127289" PMx_abs="47.341350" NOx_abs="1070.990886" fuel_abs="829576.349875" electricity_abs="0"/>
    </tripinfo>
    <tripinfo id="323" depart="20040.00" departLane="254466686#4_0" departPos="5.10" departSpeed="0.00" departDelay="0.00" arrival="20914.00" arrivalLane="254466686#4_0" arrivalPos="104.03" arrivalSpeed="10.12" duration="874.00" routeLength="4989.73" waitingTime="213.00" waitingCount="10" stopTime="100.00" timeLoss="303.60" rerouteNo="2" devices="vehroute_323 tripinfo_323 emissions_323" vType="vecType" speedFactor="0.95" vaporized="">
        <emissions CO_abs="57218.451997" CO2_abs="1847141.541414" HC_abs="303.022896" PMx_abs="32.493159" NOx_abs="757.213868" fuel_abs="589171.538620" electricity_abs="0"/>
    </tripinfo>
    <tripinfo id="320" depart="20040.00" departLane="191296172#0_0" departPos="5.10" departSpeed="0.00" departDelay="0.00" arrival="20961.00" arrivalLane="191296172#0_0" arrivalPos="157.44" arrivalSpeed="9.08" duration="921.00" routeLength="5324.91" waitingTime="182.00" waitingCount="8" stopTime="100.00" timeLoss="279.59" rerouteNo="1" devices="vehroute_320 tripinfo_320 emissions_320" vType="vecType" speedFactor="0.83" vaporized="">
        <emissions CO_abs="58689.861652" CO2_abs="1923823.824024" HC_abs="311.102631" PMx_abs="34.321224" NOx_abs="788.515766" fuel_abs="613629.393557" electricity_abs="0"/>
    </tripinfo>
    <tripinfo id="310" depart="19860.00" departLane="31129765_0" departPos="5.10" departSpeed="0.00" departDelay="0.00" arrival="20962.00" arrivalLane="31129765_1" arrivalPos="639.51" arrivalSpeed="24.08" duration="1102.00" routeLength="8198.99" waitingTime="376.00" waitingCount="14" stopTime="100.00" timeLoss="497.67" rerouteNo="1" devices="vehroute_310 tripinfo_310 emissions_310" vType="vecType" speedFactor="1.09" vaporized="">
        <emissions CO_abs="96454.301428" CO2_abs="3213140.385206" HC_abs="515.035888" PMx_abs="66.024074" NOx_abs="1334.747357" fuel_abs="1024866.481661" electricity_abs="0"/>
    </tripinfo>
    <tripinfo id="325" depart="20100.00" departLane="31129765_0" departPos="5.10" departSpeed="0.00" departDelay="0.00" arrival="20965.00" arrivalLane="31129765_0" arrivalPos="639.51" arrivalSpeed="20.14" duration="865.00" routeLength="8684.20" waitingTime="86.00" waitingCount="3" stopTime="100.00" timeLoss="171.28" rerouteNo="2" devices="vehroute_325 tripinfo_325 emissions_325" vType="vecType" speedFactor="0.93" vaporized="">
        <emissions CO_abs="43918.174392" CO2_abs="2363030.454891" HC_abs="254.344197" PMx_abs="42.063072" NOx_abs="933.788149" fuel_abs="753704.803398" electricity_abs="0"/>
    </tripinfo>
    <tripinfo id="332" depart="20400.00" departLane="-242896157#0_0" departPos="5.10" departSpeed="0.00" departDelay="0.00" arrival="20982.00" arrivalLane="-242896157#0_1" arrivalPos="109.29" arrivalSpeed="11.09" duration="582.00" routeLength="8698.52" waitingTime="57.00" waitingCount="3" stopTime="100.00" timeLoss="101.52" rerouteNo="2" devices="vehroute_332 tripinfo_332 emissions_332" vType="vecType" speedFactor="1.00" vaporized="">
        <emissions CO_abs="36134.472060" CO2_abs="2081405.538354" HC_abs="214.864534" PMx_abs="42.849543" NOx_abs="796.795604" fuel_abs="663875.466543" electricity_abs="0"/>
    </tripinfo>
    <tripinfo id="305" depart="19800.00" departLane="31129765_0" departPos="5.10" departSpeed="0.00" departDelay="0.00" arrival="21016.00" arrivalLane="31129765_0" arrivalPos="639.51" arrivalSpeed="17.71" duration="1216.00" routeLength="7077.59" waitingTime="403.00" waitingCount="15" stopTime="100.00" timeLoss="517.54" rerouteNo="1" devices="vehroute_305 tripinfo_305 emissions_305" vType="vecType" speedFactor="0.83" vaporized="">
        <emissions CO_abs="98428.653726" CO2_abs="2933968.900519" HC_abs="515.253368" PMx_abs="57.045487" NOx_abs="1224.538401" fuel_abs="935829.558365" electricity_abs="0"/>
    </tripinfo>
    <tripinfo id="309" depart="19860.00" departLane="8915254_0" departPos="5.10" departSpeed="0.00" departDelay="0.00" arrival="21029.00" arrivalLane="8915254_0" arrivalPos="317.12" arrivalSpeed="17.79" duration="1169.00" routeLength="7682.09" waitingTime="249.00" waitingCount="12" stopTime="100.00" timeLoss="365.70" rerouteNo="2" devices="vehroute_309 tripinfo_309 emissions_309" vType="vecType" speedFactor="0.86" vaporized="">
        <emissions CO_abs="74854.170947" CO2_abs="2626919.320587" HC_abs="400.931449" PMx_abs="47.031004" NOx_abs="1076.317433" fuel_abs="837887.661029" electricity_abs="0"/>
    </tripinfo>
    <tripinfo id="300" depart="19800.00" departLane="-242896157#0_0" departPos="5.10" departSpeed="0.00" departDelay="0.00" arrival="21051.00" arrivalLane="-242896157#0_0" arrivalPos="109.29" arrivalSpeed="10.67" duration="1251.00" routeLength="7110.58" waitingTime="411.00" waitingCount="17" stopTime="100.00" timeLoss="550.41" rerouteNo="2" devices="vehroute_300 tripinfo_300 emissions_300" vType="vecType" speedFactor="1.06" vaporized="">
        <emissions CO_abs="97418.617735" CO2_abs="2964067.120731" HC_abs="511.981638" PMx_abs="55.858340" NOx_abs="1234.953429" fuel_abs="945430.186700" electricity_abs="0"/>
    </tripinfo>
    <tripinfo id="312" depart="19860.00" departLane="8922307_0" departPos="5.10" departSpeed="0.00" departDelay="0.00" arrival="21053.00" arrivalLane="8922307_1" arrivalPos="192.79" arrivalSpeed="10.52" duration="1193.00" routeLength="6772.56" waitingTime="400.00" waitingCount="13" stopTime="100.00" timeLoss="516.43" rerouteNo="2" devices="vehroute_312 tripinfo_312 emissions_312" vType="vecType" speedFactor="1.05" vaporized="">
        <emissions CO_abs="92467.062114" CO2_abs="2812535.203001" HC_abs="485.855488" PMx_abs="52.834508" NOx_abs="1170.317796" fuel_abs="897097.244495" electricity_abs="0"/>
    </tripinfo>
    <tripinfo id="324" depart="20040.00" departLane="224384035#0_0" departPos="5.10" departSpeed="0.00" departDelay="0.00" arrival="21121.00" arrivalLane="224384035#0_0" arrivalPos="123.84" arrivalSpeed="11.64" duration="1081.00" routeLength="6810.48" waitingTime="331.00" waitingCount="12" stopTime="100.00" timeLoss="447.94" rerouteNo="1" devices="vehroute_324 tripinfo_324 emissions_324" vType="vecType" speedFactor="1.13" vaporized="">
        <emissions CO_abs="80422.315049" CO2_abs="2645583.377560" HC_abs="426.358791" PMx_abs="49.566531" NOx_abs="1096.148094" fuel_abs="843841.728439" electricity_abs="0"/>
    </tripinfo>
    <tripinfo id="321" depart="20040.00" departLane="254396709#0_0" departPos="5.10" departSpeed="0.00" departDelay="0.00" arrival="21122.00" arrivalLane="254396709#0_0" arrivalPos="146.41" arrivalSpeed="9.44" duration="1082.00" routeLength="5067.90" waitingTime="353.00" waitingCount="16" stopTime="100.00" timeLoss="466.27" rerouteNo="1" devices="vehroute_321 tripinfo_321 emissions_321" vType="vecType" speedFactor="0.87" vaporized="">
        <emissions CO_abs="86877.018226" CO2_abs="2353705.345639" HC_abs="449.842769" PMx_abs="44.644069" NOx_abs="988.607630" fuel_abs="750752.081728" electricity_abs="0"/>
    </tripinfo>
    <tripinfo id="308" depart="19860.00" departLane="144489137#0_0" departPos="5.10" departSpeed="0.00" departDelay="0.00" arrival="21135.00" arrivalLane="144489137#0_0" arrivalPos="135.49" arrivalSpeed="9.95" duration="1275.00" routeLength="6198.03" waitingTime="465.00" waitingCount="16" stopTime="100.00" timeLoss="586.94" rerouteNo="1" devices="vehroute_308 tripinfo_308 emissions_308" vType="vecType" speedFactor="0.94" vaporized="">
        <emissions CO_abs="105589.048212" CO2_abs="2856965.265766" HC_abs="546.843091" PMx_abs="54.830833" NOx_abs="1201.569631" fuel_abs="911274.480165" electricity_abs="0"/>
    </tripinfo>
    <tripinfo id="328" depart="20220.00" departLane="p1#1_0" departPos="5.10" departSpeed="0.00" departDelay="0.00" arrival="21146.00" arrivalLane="p1#1_0" arrivalPos="53.21" arrivalSpeed="1.74" duration="926.00" routeLength="6784.34" waitingTime="153.00" waitingCount="9" stopTime="100.00" timeLoss="276.04" rerouteNo="2" devices="vehroute_328 tripinfo_328 emissions_328" vType="vecType" speedFactor="1.01" vaporized="">
        <emissions CO_abs="59752.106291" CO2_abs="2319805.805209" HC_abs="325.629459" PMx_abs="43.129989" NOx_abs="945.230924" fuel_abs="739925.377262" electricity_abs="0"/>
    </tripinfo>
    <tripinfo id="316" depart="19920.00" departLane="-24310636#2_0" departPos="5.10" departSpeed="0.00" departDelay="0.00" arrival="21160.00" arrivalLane="-24310636#2_1" arrivalPos="108.36" arrivalSpeed="9.74" duration="1240.00" routeLength="6603.46" waitingTime="358.00" waitingCount="12" stopTime="100.00" timeLoss="466.63" rerouteNo="1" devices="vehroute_316 tripinfo_316 emissions_316" vType="vecType" speedFactor="0.88" vaporized="">
        <emissions CO_abs="88633.997932" CO2_abs="2601658.213798" HC_abs="463.389073" PMx_abs="47.019378" NOx_abs="1077.261519" fuel_abs="829838.610821" electricity_abs="0"/>
    </tripinfo>
    <tripinfo id="304" depart="19800.00" departLane="120256350#3_0" departPos="5.10" departSpeed="0.00" departDelay="0.00" arrival="21180.00" arrivalLane="120256350#3_0" arrivalPos="192.58" arrivalSpeed="11.38" duration="1380.00" routeLength="7163.95" waitingTime="518.00" waitingCount="18" stopTime="100.00" timeLoss="657.26" rerouteNo="1" devices="vehroute_304 tripinfo_304 emissions_304" vType="vecType" speedFactor="1.03" vaporized="">
        <emissions CO_abs="115335.299362" CO2_abs="3219172.582144" HC_abs="599.663679" PMx_abs="61.948279" NOx_abs="1350.828644" fuel_abs="1026804.127445" electricity_abs="0"/>
    </tripinfo>
    <tripinfo id="315" depart="19920.00" departLane="-35675861#0_0" departPos="5.10" departSpeed="0.00" departDelay="0.00" arrival="21224.00" arrivalLane="-35675861#0_0" arrivalPos="82.43" arrivalSpeed="9.90" duration="1304.00" routeLength="7507.65" waitingTime="350.00" waitingCount="14" stopTime="100.00" timeLoss="478.68" rerouteNo="1" devices="vehroute_315 tripinfo_315 emissions_315" vType="vecType" speedFactor="0.93" vaporized="">
        <emissions CO_abs="90967.826764" CO2_abs="2838049.038464" HC_abs="479.632651" PMx_abs="51.245997" NOx_abs="1173.396736" fuel_abs="905235.616258" electricity_abs="0"/>
    </tripinfo>
    <tripinfo id="322" depart="20040.00" departLane="99231460_0" departPos="5.10" departSpeed="0.00" departDelay="0.00" arrival="21228.00" arrivalLane="99231460_0" arrivalPos="108.09" arrivalSpeed="9.32" duration="1188.00" routeLength="6984.38" waitingTime="310.00" waitingCount="11" stopTime="100.00" timeLoss="406.08" rerouteNo="2" devices="vehroute_322 tripinfo_322 emissions_322" vType="vecType" speedFactor="0.92" vaporized="">
        <emissions CO_abs="78874.710242" CO2_abs="2525100.679806" HC_abs="417.239756" PMx_abs="44.653841" NOx_abs="1037.773290" fuel_abs="805416.105284" electricity_abs="0"/>
    </tripinfo>
    <tripinfo id="334" depart="20520.00" departLane="31129765_0" departPos="5.10" departSpeed="0.00" departDelay="0.00" arrival="21233.00" arrivalLane="31129765_0" arrivalPos="639.51" arrivalSpeed="22.44" duration="713.00" routeLength="7304.50" waitingTime="91.00" waitingCount="5" stopTime="100.00" timeLoss="161.28" rerouteNo="1" devices="vehroute_334 tripinfo_334 emissions_334" vType="vecType" speedFactor="1.04" vaporized="">
        <emissions CO_abs="39785.876042" CO2_abs="2044605.875584" HC_abs="229.166144" PMx_abs="38.234187" NOx_abs="810.282635" fuel_abs="652141.166830" electricity_abs="0"/>
    </tripinfo>
    <tripinfo id="335" depart="20520.00" departLane="-24310636#2_0" departPos="5.10" departSpeed="0.00" departDelay="0.00" arrival="21256.00" arrivalLane="-24310636#2_1" arrivalPos="108.36" arrivalSpeed="11.38" duration="736.00" routeLength="4476.88" waitingTime="145.00" waitingCount="5" stopTime="100.00" timeLoss="217.43" rerouteNo="2" devices="vehroute_335 tripinfo_335 emissions_335" vType="vecType" speedFactor="1.02" vaporized="">
        <emissions CO_abs="42016.402745" CO2_abs="1505611.300889" HC_abs="225.919046" PMx_abs="25.749109" NOx_abs="610.092432" fuel_abs="480233.814507" electricity_abs="0"/>
    </tripinfo>
    <tripinfo id="327" depart="20100.00" departLane="111089307#0_0" departPos="5.10" departSpeed="0.00" departDelay="0.00" arrival="21293.00" arrivalLane="111089307#0_0" arrivalPos="135.96" arrivalSpeed="11.94" duration="1193.00" routeLength="7182.83" waitingTime="411.00" waitingCount="15" stopTime="100.00" timeLoss="535.83" rerouteNo="2" devices="vehroute_327 tripinfo_327 emissions_327" vType="vecType" speedFactor="1.15" vaporized="">
        <emissions CO_abs="93936.948256" CO2_abs="2907507.250609" HC_abs="493.592051" PMx_abs="54.884906" NOx_abs="1205.806668" fuel_abs="927388.791631" electricity_abs="0"/>
    </tripinfo>
    <tripinfo id="372" depart="21120.00" departLane="-24310636#2_0" departPos="5.10" departSpeed="0.00" departDelay="0.00" arrival="21309.00" arrivalLane="-24310636#2_1" arrivalPos="108.36" arrivalSpeed="10.73" duration="189.00" routeLength="843.42" waitingTime="0.00" waitingCount="0" stopTime="100.00" timeLoss="12.82" rerouteNo="1" devices="vehroute_372 tripinfo_372 emissions_372" vType="vecType" speedFactor="0.99" vaporized="">
        <emissions CO_abs="3608.721295" CO2_abs="220825.851203" HC_abs="21.522652" PMx_abs="3.431282" NOx_abs="87.610569" fuel_abs="70433.942028" electricity_abs="0"/>
    </tripinfo>
    <tripinfo id="333" depart="20520.00" departLane="-254297762#2_0" departPos="5.10" departSpeed="0.00" departDelay="0.00" arrival="21397.00" arrivalLane="-254297762#2_0" arrivalPos="291.17" arrivalSpeed="9.74" duration="877.00" routeLength="5272.17" waitingTime="169.00" waitingCount="5" stopTime="100.00" timeLoss="252.85" rerouteNo="1" devices="vehroute_333 tripinfo_333 emissions_333" vType="vecType" speedFactor="0.90" vaporized="">
        <emissions CO_abs="51415.125650" CO2_abs="1806322.072464" HC_abs="275.632892" PMx_abs="31.039600" NOx_abs="737.636124" fuel_abs="576149.391395" electricity_abs="0"/>
    </tripinfo>
    <tripinfo id="329" depart="20280.00" departLane="27146036#1_0" departPos="5.10" departSpeed="0.00" departDelay="0.00" arrival="21424.00" arrivalLane="27146036#1_1" arrivalPos="87.35" arrivalSpeed="12.12" duration="1144.00" routeLength="9348.17" waitingTime="323.00" waitingCount="11" stopTime="100.00" timeLoss="462.99" rerouteNo="2" devices="vehroute_329 tripinfo_329 emissions_329" vType="vecType" speedFactor="1.17" vaporized="">
        <emissions CO_abs="92579.343748" CO2_abs="3413222.106993" HC_abs="501.500745" PMx_abs="68.532116" NOx_abs="1408.565693" fuel_abs="1088680.091029" electricity_abs="0"/>
    </tripinfo>
    <tripinfo id="336" depart="20640.00" departLane="31129765_0" departPos="5.10" departSpeed="0.00" departDelay="0.00" arrival="21447.00" arrivalLane="31129765_0" arrivalPos="639.51" arrivalSpeed="22.15" duration="807.00" routeLength="7161.80" waitingTime="181.00" waitingCount="7" stopTime="100.00" timeLoss="259.61" rerouteNo="1" devices="vehroute_336 tripinfo_336 emissions_336" vType="vecType" speedFactor="1.02" vaporized="">
        <emissions CO_abs="55515.987276" CO2_abs="2292748.110822" HC_abs="306.458894" PMx_abs="44.629073" NOx_abs="927.934836" fuel_abs="731292.069020" electricity_abs="0"/>
    </tripinfo>
    <tripinfo id="347" depart="20880.00" departLane="31129765_0" departPos="5.10" departSpeed="0.00" departDelay="0.00" arrival="21447.00" arrivalLane="31129765_1" arrivalPos="639.51" arrivalSpeed="22.52" duration="567.00" routeLength="6073.24" waitingTime="63.00" waitingCount="4" stopTime="100.00" timeLoss="123.11" rerouteNo="1" devices="vehroute_347 tripinfo_347 emissions_347" vType="vecType" speedFactor="1.04" vaporized="">
        <emissions CO_abs="32042.088815" CO2_abs="1727344.529389" HC_abs="186.597825" PMx_abs="33.056939" NOx_abs="686.624816" fuel_abs="550946.739325" electricity_abs="0"/>
    </tripinfo>
    <tripinfo id="346" depart="20880.00" departLane="90077241_0" departPos="5.10" departSpeed="0.00" departDelay="0.00" arrival="21542.00" arrivalLane="90077241_0" arrivalPos="3225.35" arrivalSpeed="28.76" duration="662.00" routeLength="11564.84" waitingTime="33.00" waitingCount="2" stopTime="100.00" timeLoss="81.14" rerouteNo="1" devices="vehroute_346 tripinfo_346 emissions_346" vType="vecType" speedFactor="1.00" vaporized="">
        <emissions CO_abs="40552.013560" CO2_abs="2628481.217152" HC_abs="249.058447" PMx_abs="54.613210" NOx_abs="993.544412" fuel_abs="838365.710948" electricity_abs="0"/>
    </tripinfo>
    <tripinfo id="330" depart="20340.00" departLane="-48211062#12_0" departPos="5.10" departSpeed="0.00" departDelay="0.00" arrival="21555.00" arrivalLane="-48211062#12_0" arrivalPos="324.10" arrivalSpeed="10.72" duration="1215.00" routeLength="7601.36" waitingTime="319.00" waitingCount="11" stopTime="100.00" timeLoss="438.03" rerouteNo="2" devices="vehroute_330 tripinfo_330 emissions_330" vType="vecType" speedFactor="1.04" vaporized="">
        <emissions CO_abs="81690.564681" CO2_abs="2691502.023503" HC_abs="434.002885" PMx_abs="48.369810" NOx_abs="1105.606601" fuel_abs="858490.209116" electricity_abs="0"/>
    </tripinfo>
    <tripinfo id="331" depart="20400.00" departLane="90077241_0" departPos="5.10" departSpeed="0.00" departDelay="0.00" arrival="21602.00" arrivalLane="90077241_0" arrivalPos="3225.35" arrivalSpeed="30.54" duration="1202.00" routeLength="15417.87" waitingTime="286.00" waitingCount="7" stopTime="100.00" timeLoss="383.06" rerouteNo="2" devices="vehroute_331 tripinfo_331 emissions_331" vType="vecType" speedFactor="1.09" vaporized="">
        <emissions CO_abs="103851.072886" CO2_abs="4417532.261409" HC_abs="580.699964" PMx_abs="94.480466" NOx_abs="1748.108561" fuel_abs="1409006.692581" electricity_abs="0"/>
    </tripinfo>
    <tripinfo id="360" depart="21000.00" departLane="8920934_0" departPos="5.10" departSpeed="0.00" departDelay="0.00" arrival="21634.00" arrivalLane="8920934_0" arrivalPos="69.45" arrivalSpeed="10.10" duration="634.00" routeLength="3669.15" waitingTime="152.00" waitingCount="8" stopTime="100.00" timeLoss="211.27" rerouteNo="1" devices="vehroute_360 tripinfo_360 emissions_360" vType="vecType" speedFactor="1.01" vaporized="">
        <emissions CO_abs="39827.444569" CO2_abs="1368471.066578" HC_abs="213.017543" PMx_abs="24.698829" NOx_abs="563.815081" fuel_abs="436490.688685" electricity_abs="0"/>
    </tripinfo>
    <tripinfo id="353" depart="20886.00" departLane="90077241_0" departPos="5.10" departSpeed="0.00" departDelay="6.00" arrival="21670.00" arrivalLane="90077241_0" arrivalPos="3225.35" arrivalSpeed="26.53" duration="784.00" routeLength="13772.33" waitingTime="5.00" waitingCount="1" stopTime="100.00" timeLoss="58.04" rerouteNo="1" devices="vehroute_353 tripinfo_353 emissions_353" vType="vecType" speedFactor="0.92" vaporized="">
        <emissions CO_abs="33864.311047" CO2_abs="2874895.504168" HC_abs="220.951197" PMx_abs="54.249465" NOx_abs="1063.913609" fuel_abs="916958.436859" electricity_abs="0"/>
    </tripinfo>
    <tripinfo id="379" depart="21300.00" departLane="111089307#0_0" departPos="5.10" departSpeed="0.00" departDelay="0.00" arrival="21674.00" arrivalLane="111089307#0_0" arrivalPos="135.96" arrivalSpeed="8.06" duration="374.00" routeLength="1951.28" waitingTime="34.00" waitingCount="1" stopTime="100.00" timeLoss="61.27" rerouteNo="1" devices="vehroute_379 tripinfo_379 emissions_379" vType="vecType" speedFactor="0.82" vaporized="">
        <emissions CO_abs="14910.469038" CO2_abs="589733.919883" HC_abs="81.292854" PMx_abs="9.084627" NOx_abs="234.758725" fuel_abs="188103.074998" electricity_abs="0"/>
    </tripinfo>
    <tripinfo id="342" depart="20880.00" departLane="-204884378#1_0" departPos="5.10" departSpeed="0.00" departDelay="0.00" arrival="21701.00" arrivalLane="-204884378#1_1" arrivalPos="41.26" arrivalSpeed="11.37" duration="821.00" routeLength="9395.79" waitingTime="225.00" waitingCount="6" stopTime="100.00" timeLoss="286.90" rerouteNo="2" devices="vehroute_342 tripinfo_342 emissions_342" vType="vecType" speedFactor="1.02" vaporized="">
        <emissions CO_abs="68266.872418" CO2_abs="2729139.893904" HC_abs="376.766999" PMx_abs="58.131915" NOx_abs="1085.914181" fuel_abs="870482.804332" electricity_abs="0"/>
    </tripinfo>
    <tripinfo id="356" depart="20940.00" departLane="27398045#1_0" departPos="5.10" departSpeed="0.00" departDelay="0.00" arrival="21714.00" arrivalLane="27398045#1_0" arrivalPos="122.17" arrivalSpeed="10.76" duration="774.00" routeLength="5225.37" waitingTime="141.00" waitingCount="6" stopTime="100.00" timeLoss="214.88" rerouteNo="2" devices="vehroute_356 tripinfo_356 emissions_356" vType="vecType" speedFactor="1.01" vaporized="">