<?xml version="1.0" encoding="UTF-8"?>

<!-- generated on 2022-12-14 15:40:00 by Eclipse SUMO sumo Version 1.14.1
<configuration xmlns:xsi="http://www.w3.org/2001/XMLSchema-instance" xsi:noNamespaceSchemaLocation="http://sumo.dlr.de/xsd/sumoConfiguration.xsd">

    <input>
        <net-file value="./strategia2_config/../san_francisco.net.xml"/>
        <route-files value="./strategia2_config/../san_francisco.rou.xml"/>
        <additional-files value="./strategia2_config/../san_francisco.poly.xml,./strategia2_config/../parking_capacity_100%25/off_parking_100%25.add.xml,./strategia2_config/../parking_capacity_100%25/on_parking_100%25.add.xml"/>
    </input>

    <output>
        <emission-output value="./strategia2_config/../output/strategia2/100%25/emissions.xml"/>
        <tripinfo-output value="./strategia2_config/../output/strategia2/100%25/tripinfo.xml"/>
        <vehroute-output value="./strategia2_config/../output/strategia2/100%25/vehroute.xml"/>
        <stop-output value="./strategia2_config/../output/strategia2/100%25/stops.xml"/>
        <collision-output value="./strategia2_config/../output/strategia2/100%25/collision.xml"/>
        <statistic-output value="./strategia2_config/../output/strategia2/100%25/statistic.xml"/>
    </output>

    <time>
        <step-length value="1"/>
    </time>

    <processing>
        <ignore-route-errors value="false"/>
        <time-to-teleport value="-1"/>
    </processing>

    <report>
        <verbose value="true"/>
        <xml-validation value="never"/>
    </report>

    <traci_server>
        <remote-port value="50054"/>
    </traci_server>

    <gui_only>
        <gui-settings-file value="./strategia2_config/../gui-settings.cfg"/>
        <start value="true"/>
    </gui_only>

</configuration>
-->

<tripinfos xmlns:xsi="http://www.w3.org/2001/XMLSchema-instance" xsi:noNamespaceSchemaLocation="http://sumo.dlr.de/xsd/tripinfo_file.xsd">
    <tripinfo id="30" depart="18000.00" departLane="-91181760#0_0" departPos="5.10" departSpeed="0.00" departDelay="0.00" arrival="18336.00" arrivalLane="-91181760#0_0" arrivalPos="79.70" arrivalSpeed="12.17" duration="336.00" routeLength="3660.42" waitingTime="5.00" waitingCount="2" stopTime="3.00" timeLoss="54.44" rerouteNo="1" devices="vehroute_30 tripinfo_30 emissions_30" vType="vecType" speedFactor="1.18" vaporized="">
        <emissions CO_abs="13818.030434" CO2_abs="1007906.885002" HC_abs="85.535184" PMx_abs="16.322862" NOx_abs="399.286829" fuel_abs="321476.745374" electricity_abs="0"/>
    </tripinfo>
    <tripinfo id="1" depart="18000.00" departLane="31129765_0" departPos="5.10" departSpeed="0.00" departDelay="0.00" arrival="18354.00" arrivalLane="31129765_0" arrivalPos="639.51" arrivalSpeed="20.60" duration="354.00" routeLength="4341.32" waitingTime="36.00" waitingCount="2" stopTime="3.00" timeLoss="82.64" rerouteNo="1" devices="vehroute_1 tripinfo_1 emissions_1" vType="vecType" speedFactor="0.94" vaporized="">
        <emissions CO_abs="21438.886528" CO2_abs="1213076.726037" HC_abs="125.420421" PMx_abs="22.407057" NOx_abs="483.200360" fuel_abs="386917.577290" electricity_abs="0"/>
    </tripinfo>
    <tripinfo id="45" depart="18060.00" departLane="31129765_0" departPos="5.10" departSpeed="0.00" departDelay="0.00" arrival="18367.00" arrivalLane="31129765_0" arrivalPos="639.51" arrivalSpeed="23.24" duration="307.00" routeLength="4234.28" waitingTime="40.00" waitingCount="1" stopTime="3.00" timeLoss="80.72" rerouteNo="1" devices="vehroute_45 tripinfo_45 emissions_45" vType="vecType" speedFactor="1.09" vaporized="">
        <emissions CO_abs="23005.213730" CO2_abs="1287705.586770" HC_abs="135.070107" PMx_abs="25.671096" NOx_abs="519.188405" fuel_abs="410719.459927" electricity_abs="0"/>
    </tripinfo>
    <tripinfo id="60" depart="18060.00" departLane="8916792_0" departPos="5.10" departSpeed="0.00" departDelay="0.00" arrival="18488.00" arrivalLane="8916792_0" arrivalPos="615.11" arrivalSpeed="11.81" duration="428.00" routeLength="3743.73" waitingTime="70.00" waitingCount="3" stopTime="3.00" timeLoss="114.76" rerouteNo="1" devices="vehroute_60 tripinfo_60 emissions_60" vType="vecType" speedFactor="1.08" vaporized="">
        <emissions CO_abs="22447.871178" CO2_abs="1033018.911613" HC_abs="125.608907" PMx_abs="16.516684" NOx_abs="408.663222" fuel_abs="329491.900103" electricity_abs="0"/>
    </tripinfo>
    <tripinfo id="74" depart="18120.00" departLane="144489137#0_0" departPos="5.10" departSpeed="0.00" departDelay="0.00" arrival="18539.00" arrivalLane="144489137#0_0" arrivalPos="135.49" arrivalSpeed="9.81" duration="419.00" routeLength="2784.43" waitingTime="115.00" waitingCount="5" stopTime="3.00" timeLoss="158.65" rerouteNo="2" devices="vehroute_74 tripinfo_74 emissions_74" vType="vecType" speedFactor="0.96" vaporized="">
        <emissions CO_abs="30333.087336" CO2_abs="1013600.211339" HC_abs="161.360059" PMx_abs="18.123996" NOx_abs="417.035056" fuel_abs="323300.913150" electricity_abs="0"/>
    </tripinfo>
    <tripinfo id="76" depart="18120.00" departLane="225806031#0_0" departPos="5.10" departSpeed="0.00" departDelay="0.00" arrival="18576.00" arrivalLane="225806031#0_0" arrivalPos="142.16" arrivalSpeed="11.19" duration="456.00" routeLength="3181.76" waitingTime="120.00" waitingCount="5" stopTime="3.00" timeLoss="178.37" rerouteNo="1" devices="vehroute_76 tripinfo_76 emissions_76" vType="vecType" speedFactor="1.03" vaporized="">
        <emissions CO_abs="34352.656464" CO2_abs="1210589.379184" HC_abs="184.391568" PMx_abs="22.141527" NOx_abs="500.609721" fuel_abs="386131.470220" electricity_abs="0"/>
    </tripinfo>
    <tripinfo id="21" depart="18000.00" departLane="27167762_0" departPos="5.10" departSpeed="0.00" departDelay="0.00" arrival="18621.00" arrivalLane="27167762_0" arrivalPos="139.02" arrivalSpeed="21.62" duration="621.00" routeLength="5420.07" waitingTime="170.00" waitingCount="8" stopTime="3.00" timeLoss="252.39" rerouteNo="2" devices="vehroute_21 tripinfo_21 emissions_21" vType="vecType" speedFactor="1.01" vaporized="">
        <emissions CO_abs="52049.170831" CO2_abs="1970250.997540" HC_abs="283.282882" PMx_abs="38.604624" NOx_abs="812.814240" fuel_abs="628430.341412" electricity_abs="0"/>
    </tripinfo>
    <tripinfo id="10" depart="18000.00" departLane="90077241_0" departPos="5.10" departSpeed="0.00" departDelay="0.00" arrival="18639.00" arrivalLane="90077241_0" arrivalPos="3225.35" arrivalSpeed="30.91" duration="639.00" routeLength="11810.95" waitingTime="98.00" waitingCount="4" stopTime="3.00" timeLoss="177.25" rerouteNo="2" devices="vehroute_10 tripinfo_10 emissions_10" vType="vecType" speedFactor="1.09" vaporized="">
        <emissions CO_abs="64002.691316" CO2_abs="3135278.091398" HC_abs="369.297853" PMx_abs="69.973493" NOx_abs="1225.444461" fuel_abs="1000014.719630" electricity_abs="0"/>
    </tripinfo>
    <tripinfo id="49" depart="18063.00" departLane="31129765_0" departPos="5.10" departSpeed="0.00" departDelay="3.00" arrival="18646.00" arrivalLane="31129765_0" arrivalPos="639.51" arrivalSpeed="18.97" duration="583.00" routeLength="12944.78" waitingTime="0.00" waitingCount="0" stopTime="3.00" timeLoss="34.05" rerouteNo="1" devices="vehroute_49 tripinfo_49 emissions_49" vType="vecType" speedFactor="0.85" vaporized="">
        <emissions CO_abs="23195.548644" CO2_abs="2467700.763190" HC_abs="161.146790" PMx_abs="45.132023" NOx_abs="898.560677" fuel_abs="787079.860826" electricity_abs="0"/>
    </tripinfo>
    <tripinfo id="93" depart="18120.00" departLane="-254758121#2_0" departPos="5.10" departSpeed="0.00" departDelay="0.00" arrival="18670.00" arrivalLane="-254758121#2_0" arrivalPos="99.35" arrivalSpeed="9.04" duration="550.00" routeLength="4284.51" waitingTime="73.00" waitingCount="3" stopTime="3.00" timeLoss="130.73" rerouteNo="2" devices="vehroute_93 tripinfo_93 emissions_93" vType="vecType" speedFactor="0.92" vaporized="">
        <emissions CO_abs="29579.595241" CO2_abs="1273752.460191" HC_abs="163.939545" PMx_abs="20.664668" NOx_abs="511.726336" fuel_abs="406276.733892" electricity_abs="0"/>
    </tripinfo>
    <tripinfo id="16" depart="18006.00" departLane="90077241_0" departPos="5.10" departSpeed="0.00" departDelay="6.00" arrival="18689.00" arrivalLane="90077241_0" arrivalPos="3225.35" arrivalSpeed="25.25" duration="683.00" routeLength="11625.26" waitingTime="99.00" waitingCount="3" stopTime="3.00" timeLoss="156.03" rerouteNo="1" devices="vehroute_16 tripinfo_16 emissions_16" vType="vecType" speedFactor="0.88" vaporized="">
        <emissions CO_abs="44267.964591" CO2_abs="2677155.518814" HC_abs="262.224880" PMx_abs="51.470959" NOx_abs="1015.376573" fuel_abs="853893.762219" electricity_abs="0"/>
    </tripinfo>
    <tripinfo id="28" depart="18009.00" departLane="90077241_0" departPos="5.10" departSpeed="0.00" departDelay="9.00" arrival="18692.00" arrivalLane="90077241_0" arrivalPos="3225.35" arrivalSpeed="32.56" duration="683.00" routeLength="12386.24" waitingTime="134.00" waitingCount="5" stopTime="3.00" timeLoss="213.27" rerouteNo="3" devices="vehroute_28 tripinfo_28 emissions_28" vType="vecType" speedFactor="1.13" vaporized="">
        <emissions CO_abs="75551.426510" CO2_abs="3450885.774937" HC_abs="429.849975" PMx_abs="79.008688" NOx_abs="1365.697036" fuel_abs="1100680.268785" electricity_abs="0"/>
    </tripinfo>
    <tripinfo id="36" depart="18009.00" departLane="123867455_0" departPos="5.10" departSpeed="0.00" departDelay="9.00" arrival="18704.00" arrivalLane="123867455_0" arrivalPos="904.85" arrivalSpeed="27.33" duration="695.00" routeLength="5901.75" waitingTime="228.00" waitingCount="8" stopTime="3.00" timeLoss="307.64" rerouteNo="2" devices="vehroute_36 tripinfo_36 emissions_36" vType="vecType" speedFactor="0.97" vaporized="">
        <emissions CO_abs="60864.062106" CO2_abs="2120811.881710" HC_abs="327.098743" PMx_abs="42.336893" NOx_abs="871.522954" fuel_abs="676456.008936" electricity_abs="0"/>
    </tripinfo>
    <tripinfo id="31" depart="18006.00" departLane="123867455_0" departPos="5.10" departSpeed="0.00" departDelay="6.00" arrival="18707.00" arrivalLane="123867455_0" arrivalPos="904.85" arrivalSpeed="33.15" duration="701.00" routeLength="7632.90" waitingTime="131.00" waitingCount="7" stopTime="3.00" timeLoss="233.88" rerouteNo="1" devices="vehroute_31 tripinfo_31 emissions_31" vType="vecType" speedFactor="1.15" vaporized="">
        <emissions CO_abs="49993.847031" CO2_abs="2334803.475064" HC_abs="281.709269" PMx_abs="44.393904" NOx_abs="942.864802" fuel_abs="744702.684910" electricity_abs="0"/>
    </tripinfo>
    <tripinfo id="13" depart="18003.00" departLane="90077241_0" departPos="5.10" departSpeed="0.00" departDelay="3.00" arrival="18746.00" arrivalLane="90077241_0" arrivalPos="3225.35" arrivalSpeed="32.55" duration="743.00" routeLength="12752.38" waitingTime="147.00" waitingCount="6" stopTime="3.00" timeLoss="220.23" rerouteNo="1" devices="vehroute_13 tripinfo_13 emissions_13" vType="vecType" speedFactor="1.12" vaporized="">
        <emissions CO_abs="76063.509275" CO2_abs="3496000.089636" HC_abs="432.778713" PMx_abs="78.238066" NOx_abs="1374.245767" fuel_abs="1115071.291735" electricity_abs="0"/>
    </tripinfo>
    <tripinfo id="63" depart="18063.00" departLane="-204967525_0" departPos="5.10" departSpeed="0.00" departDelay="3.00" arrival="18748.00" arrivalLane="-204967525_1" arrivalPos="146.26" arrivalSpeed="10.36" duration="685.00" routeLength="4830.14" waitingTime="155.00" waitingCount="8" stopTime="3.00" timeLoss="243.78" rerouteNo="1" devices="vehroute_63 tripinfo_63 emissions_63" vType="vecType" speedFactor="0.99" vaporized="">
        <emissions CO_abs="44991.864432" CO2_abs="1610527.518767" HC_abs="241.963220" PMx_abs="27.808620" NOx_abs="656.025872" fuel_abs="513697.757190" electricity_abs="0"/>
    </tripinfo>
    <tripinfo id="77" depart="18120.00" departLane="90077241_0" departPos="5.10" departSpeed="0.00" departDelay="0.00" arrival="18750.00" arrivalLane="90077241_0" arrivalPos="3225.35" arrivalSpeed="27.73" duration="630.00" routeLength="11810.95" waitingTime="52.00" waitingCount="3" stopTime="3.00" timeLoss="117.37" rerouteNo="2" devices="vehroute_77 tripinfo_77 emissions_77" vType="vecType" speedFactor="0.98" vaporized="">
        <emissions CO_abs="44655.758622" CO2_abs="2761936.032828" HC_abs="270.231331" PMx_abs="56.385938" NOx_abs="1048.882175" fuel_abs="880933.193142" electricity_abs="0"/>
    </tripinfo>
    <tripinfo id="15" depart="18000.00" departLane="-24310636#2_0" departPos="5.10" departSpeed="0.00" departDelay="0.00" arrival="18753.00" arrivalLane="-24310636#2_1" arrivalPos="108.36" arrivalSpeed="9.53" duration="753.00" routeLength="6010.81" waitingTime="140.00" waitingCount="9" stopTime="4.00" timeLoss="228.53" rerouteNo="1" devices="vehroute_15 tripinfo_15 emissions_15" vType="vecType" speedFactor="0.93" vaporized="">
        <emissions CO_abs="47684.713386" CO2_abs="1879278.656685" HC_abs="260.409569" PMx_abs="33.071938" NOx_abs="763.824047" fuel_abs="599415.796792" electricity_abs="0"/>
    </tripinfo>
    <tripinfo id="39" depart="18006.00" departLane="31129765_0" departPos="5.10" departSpeed="0.00" departDelay="6.00" arrival="18758.00" arrivalLane="31129765_0" arrivalPos="639.51" arrivalSpeed="19.06" duration="752.00" routeLength="6533.65" waitingTime="221.00" waitingCount="8" stopTime="3.00" timeLoss="305.76" rerouteNo="3" devices="vehroute_39 tripinfo_39 emissions_39" vType="vecType" speedFactor="0.90" vaporized="">
        <emissions CO_abs="60820.297453" CO2_abs="2204894.584096" HC_abs="327.696995" PMx_abs="42.332203" NOx_abs="898.514712" fuel_abs="703274.864227" electricity_abs="0"/>
    </tripinfo>
    <tripinfo id="114" depart="18240.00" departLane="-254758120#3_0" departPos="5.10" departSpeed="0.00" departDelay="0.00" arrival="18769.00" arrivalLane="-254758120#3_0" arrivalPos="147.41" arrivalSpeed="12.24" duration="529.00" routeLength="3346.72" waitingTime="203.00" waitingCount="9" stopTime="3.00" timeLoss="271.08" rerouteNo="2" devices="vehroute_114 tripinfo_114 emissions_114" vType="vecType" speedFactor="1.18" vaporized="">
        <emissions CO_abs="47112.472380" CO2_abs="1438085.297854" HC_abs="247.093281" PMx_abs="27.794127" NOx_abs="601.351268" fuel_abs="458696.347091" electricity_abs="0"/>
    </tripinfo>
    <tripinfo id="33" depart="18000.00" departLane="144489137#0_0" departPos="5.10" departSpeed="0.00" departDelay="0.00" arrival="18781.00" arrivalLane="144489137#0_0" arrivalPos="135.49" arrivalSpeed="12.05" duration="781.00" routeLength="3872.00" waitingTime="382.00" waitingCount="14" stopTime="3.00" timeLoss="484.76" rerouteNo="1" devices="vehroute_33 tripinfo_33 emissions_33" vType="vecType" speedFactor="1.17" vaporized="">
        <emissions CO_abs="82784.313740" CO2_abs="2164778.878493" HC_abs="426.846080" PMx_abs="44.925204" NOx_abs="928.003474" fuel_abs="690488.790557" electricity_abs="0"/>
    </tripinfo>
    <tripinfo id="82" depart="18123.00" departLane="-133781749_0" departPos="5.10" departSpeed="0.00" departDelay="3.00" arrival="18784.00" arrivalLane="-133781749_0" arrivalPos="138.68" arrivalSpeed="11.13" duration="661.00" routeLength="5499.56" waitingTime="121.00" waitingCount="9" stopTime="3.00" timeLoss="228.34" rerouteNo="1" devices="vehroute_82 tripinfo_82 emissions_82" vType="vecType" speedFactor="1.02" vaporized="">
        <emissions CO_abs="45077.999553" CO2_abs="1844077.000050" HC_abs="247.955715" PMx_abs="33.188842" NOx_abs="750.713425" fuel_abs="588186.270163" electricity_abs="0"/>
    </tripinfo>
    <tripinfo id="0" depart="18000.00" departLane="84823308_0" departPos="5.10" departSpeed="0.00" departDelay="0.00" arrival="18793.00" arrivalLane="84823308_0" arrivalPos="275.63" arrivalSpeed="10.58" duration="793.00" routeLength="5732.03" waitingTime="217.00" waitingCount="9" stopTime="3.00" timeLoss="306.19" rerouteNo="2" devices="vehroute_0 tripinfo_0 emissions_0" vType="vecType" speedFactor="1.06" vaporized="">
        <emissions CO_abs="56508.594698" CO2_abs="2007462.017055" HC_abs="303.442752" PMx_abs="35.870382" NOx_abs="822.574674" fuel_abs="640304.066141" electricity_abs="0"/>
    </tripinfo>
    <tripinfo id="40" depart="18000.00" departLane="-206679802#4_0" departPos="5.10" departSpeed="0.00" departDelay="0.00" arrival="18827.00" arrivalLane="-206679802#4_0" arrivalPos="292.11" arrivalSpeed="11.47" duration="827.00" routeLength="6024.23" waitingTime="208.00" waitingCount="7" stopTime="3.00" timeLoss="302.92" rerouteNo="2" devices="vehroute_40 tripinfo_40 emissions_40" vType="vecType" speedFactor="1.03" vaporized="">
        <emissions CO_abs="57055.631418" CO2_abs="2091832.173994" HC_abs="308.089702" PMx_abs="36.847860" NOx_abs="855.013833" fuel_abs="667214.289182" electricity_abs="0"/>
    </tripinfo>
    <tripinfo id="117" depart="18240.00" departLane="27167762_0" departPos="5.10" departSpeed="0.00" departDelay="0.00" arrival="18834.00" arrivalLane="27167762_0" arrivalPos="139.02" arrivalSpeed="23.06" duration="594.00" routeLength="5016.55" waitingTime="185.00" waitingCount="7" stopTime="3.00" timeLoss="278.24" rerouteNo="1" devices="vehroute_117 tripinfo_117 emissions_117" vType="vecType" speedFactor="1.07" vaporized="">
        <emissions CO_abs="54420.681479" CO2_abs="1949793.203971" HC_abs="293.662714" PMx_abs="39.318435" NOx_abs="809.684873" fuel_abs="621905.839491" electricity_abs="0"/>
    </tripinfo>
    <tripinfo id="132" depart="18300.00" departLane="142972028#1_0" departPos="5.10" departSpeed="0.00" departDelay="0.00" arrival="18842.00" arrivalLane="142972028#1_0" arrivalPos="161.20" arrivalSpeed="13.40" duration="542.00" routeLength="5496.80" waitingTime="96.00" waitingCount="6" stopTime="3.00" timeLoss="185.93" rerouteNo="2" devices="vehroute_132 tripinfo_132 emissions_132" vType="vecType" speedFactor="1.23" vaporized="">
        <emissions CO_abs="35237.572102" CO2_abs="1704972.536674" HC_abs="198.682414" PMx_abs="30.803132" NOx_abs="686.298515" fuel_abs="543813.707225" electricity_abs="0"/>
    </tripinfo>
    <tripinfo id="84" depart="18123.00" departLane="90077241_0" departPos="5.10" departSpeed="0.00" departDelay="3.00" arrival="18849.00" arrivalLane="90077241_0" arrivalPos="3225.35" arrivalSpeed="32.52" duration="726.00" routeLength="12280.95" waitingTime="177.00" waitingCount="6" stopTime="3.00" timeLoss="247.69" rerouteNo="1" devices="vehroute_84 tripinfo_84 emissions_84" vType="vecType" speedFactor="1.15" vaporized="">
        <emissions CO_abs="82578.278285" CO2_abs="3490704.834493" HC_abs="462.530649" PMx_abs="80.491485" NOx_abs="1384.926240" fuel_abs="1113384.016800" electricity_abs="0"/>
    </tripinfo>
    <tripinfo id="47" depart="18060.00" departLane="90077241_0" departPos="5.10" departSpeed="0.00" departDelay="0.00" arrival="18866.00" arrivalLane="90077241_0" arrivalPos="3225.35" arrivalSpeed="25.90" duration="806.00" routeLength="12217.48" waitingTime="136.00" waitingCount="5" stopTime="3.00" timeLoss="203.94" rerouteNo="2" devices="vehroute_47 tripinfo_47 emissions_47" vType="vecType" speedFactor="0.90" vaporized="">
        <emissions CO_abs="55610.196808" CO2_abs="2974203.807759" HC_abs="322.434596" PMx_abs="57.840709" NOx_abs="1143.661588" fuel_abs="948642.079777" electricity_abs="0"/>
    </tripinfo>
    <tripinfo id="64" depart="18060.00" departLane="28319343#2_0" departPos="5.10" departSpeed="0.00" departDelay="0.00" arrival="18872.00" arrivalLane="28319343#2_0" arrivalPos="90.58" arrivalSpeed="9.73" duration="812.00" routeLength="9974.14" waitingTime="212.00" waitingCount="8" stopTime="3.00" timeLoss="282.71" rerouteNo="2" devices="vehroute_64 tripinfo_64 emissions_64" vType="vecType" speedFactor="0.94" vaporized="">
        <emissions CO_abs="65609.602724" CO2_abs="2769007.730097" HC_abs="363.805907" PMx_abs="55.515773" NOx_abs="1097.198537" fuel_abs="883198.999166" electricity_abs="0"/>
    </tripinfo>
    <tripinfo id="9" depart="18000.00" departLane="23959829#0_0" departPos="5.10" departSpeed="0.00" departDelay="0.00" arrival="18875.00" arrivalLane="23959829#0_0" arrivalPos="45.86" arrivalSpeed="9.26" duration="875.00" routeLength="6745.88" waitingTime="134.00" waitingCount="7" stopTime="3.00" timeLoss="232.65" rerouteNo="2" devices="vehroute_9 tripinfo_9 emissions_9" vType="vecType" speedFactor="0.86" vaporized="">
        <emissions CO_abs="51396.723969" CO2_abs="2068431.066496" HC_abs="281.162630" PMx_abs="34.266432" NOx_abs="830.606746" fuel_abs="659749.397719" electricity_abs="0"/>
    </tripinfo>
    <tripinfo id="56" depart="18066.00" departLane="31129765_0" departPos="5.10" departSpeed="0.00" departDelay="6.00" arrival="18877.00" arrivalLane="31129765_0" arrivalPos="639.51" arrivalSpeed="19.48" duration="811.00" routeLength="6840.91" waitingTime="249.00" waitingCount="9" stopTime="3.00" timeLoss="332.27" rerouteNo="2" devices="vehroute_56 tripinfo_56 emissions_56" vType="vecType" speedFactor="0.90" vaporized="">
        <emissions CO_abs="66090.038726" CO2_abs="2337541.883966" HC_abs="354.486391" PMx_abs="45.000103" NOx_abs="955.096773" fuel_abs="745584.872645" electricity_abs="0"/>
    </tripinfo>
    <tripinfo id="73" depart="18120.00" departLane="-204967525_0" departPos="5.10" departSpeed="0.00" departDelay="0.00" arrival="18878.00" arrivalLane="-204967525_1" arrivalPos="146.26" arrivalSpeed="11.26" duration="758.00" routeLength="5090.57" waitingTime="232.00" waitingCount="8" stopTime="3.00" timeLoss="323.68" rerouteNo="1" devices="vehroute_73 tripinfo_73 emissions_73" vType="vecType" speedFactor="1.06" vaporized="">
        <emissions CO_abs="60086.712227" CO2_abs="2021954.077099" HC_abs="320.481204" PMx_abs="37.900291" NOx_abs="842.113239" fuel_abs="644926.324015" electricity_abs="0"/>
    </tripinfo>
    <tripinfo id="104" depart="18180.00" departLane="8915254_0" departPos="5.10" departSpeed="0.00" departDelay="0.00" arrival="18882.00" arrivalLane="8915254_0" arrivalPos="317.12" arrivalSpeed="19.49" duration="702.00" routeLength="5663.72" waitingTime="153.00" waitingCount="5" stopTime="3.00" timeLoss="227.06" rerouteNo="2" devices="vehroute_104 tripinfo_104 emissions_104" vType="vecType" speedFactor="0.89" vaporized="">
        <emissions CO_abs="47561.477417" CO2_abs="1862566.803175" HC_abs="259.078482" PMx_abs="33.261780" NOx_abs="756.525187" fuel_abs="594085.158008" electricity_abs="0"/>
    </tripinfo>
    <tripinfo id="12" depart="18000.00" departLane="-23883761_0" departPos="5.10" departSpeed="0.00" departDelay="0.00" arrival="18884.00" arrivalLane="-23883761_0" arrivalPos="197.88" arrivalSpeed="11.07" duration="884.00" routeLength="5849.00" waitingTime="275.00" waitingCount="11" stopTime="3.00" timeLoss="380.82" rerouteNo="2" devices="vehroute_12 tripinfo_12 emissions_12" vType="vecType" speedFactor="1.05" vaporized="">
        <emissions CO_abs="69998.814886" CO2_abs="2281627.549104" HC_abs="371.531354" PMx_abs="42.291462" NOx_abs="946.669787" fuel_abs="727754.245825" electricity_abs="0"/>
    </tripinfo>
    <tripinfo id="27" depart="18000.00" departLane="-8916048_0" departPos="5.10" departSpeed="0.00" departDelay="0.00" arrival="18884.00" arrivalLane="-8916048_0" arrivalPos="126.72" arrivalSpeed="10.60" duration="884.00" routeLength="6742.86" waitingTime="196.00" waitingCount="8" stopTime="3.00" timeLoss="303.64" rerouteNo="1" devices="vehroute_27 tripinfo_27 emissions_27" vType="vecType" speedFactor="0.95" vaporized="">
        <emissions CO_abs="60596.479794" CO2_abs="2277312.854199" HC_abs="328.415224" PMx_abs="40.476453" NOx_abs="929.185580" fuel_abs="726374.329839" electricity_abs="0"/>
    </tripinfo>
    <tripinfo id="85" depart="18126.00" departLane="90077241_0" departPos="5.10" departSpeed="0.00" departDelay="6.00" arrival="18887.00" arrivalLane="90077241_0" arrivalPos="3225.35" arrivalSpeed="28.23" duration="761.00" routeLength="11984.76" waitingTime="165.00" waitingCount="6" stopTime="3.00" timeLoss="228.72" rerouteNo="1" devices="vehroute_85 tripinfo_85 emissions_85" vType="vecType" speedFactor="0.98" vaporized="">
        <emissions CO_abs="63476.511455" CO2_abs="3082554.835602" HC_abs="363.503790" PMx_abs="64.062600" NOx_abs="1197.343289" fuel_abs="983202.104310" electricity_abs="0"/>
    </tripinfo>
    <tripinfo id="42" depart="18009.00" departLane="31129765_0" departPos="5.10" departSpeed="0.00" departDelay="9.00" arrival="18890.00" arrivalLane="31129765_0" arrivalPos="639.51" arrivalSpeed="24.33" duration="881.00" routeLength="7763.38" waitingTime="302.00" waitingCount="12" stopTime="3.00" timeLoss="409.73" rerouteNo="1" devices="vehroute_42 tripinfo_42 emissions_42" vType="vecType" speedFactor="1.09" vaporized="">
        <emissions CO_abs="81308.047311" CO2_abs="2888702.685301" HC_abs="437.892973" PMx_abs="58.843551" NOx_abs="1193.728616" fuel_abs="921380.723152" electricity_abs="0"/>
    </tripinfo>
    <tripinfo id="29" depart="18000.00" departLane="-35977367#2_0" departPos="5.10" departSpeed="0.00" departDelay="0.00" arrival="18895.00" arrivalLane="-35977367#2_0" arrivalPos="431.73" arrivalSpeed="10.23" duration="895.00" routeLength="6070.29" waitingTime="215.00" waitingCount="7" stopTime="3.00" timeLoss="308.58" rerouteNo="2" devices="vehroute_29 tripinfo_29 emissions_29" vType="vecType" speedFactor="0.93" vaporized="">
        <emissions CO_abs="61013.327513" CO2_abs="2137019.983080" HC_abs="326.993933" PMx_abs="36.963509" NOx_abs="873.046392" fuel_abs="681629.638876" electricity_abs="0"/>
    </tripinfo>
    <tripinfo id="79" depart="18120.00" departLane="-24310636#2_0" departPos="5.10" departSpeed="0.00" departDelay="0.00" arrival="18904.00" arrivalLane="-24310636#2_1" arrivalPos="108.36" arrivalSpeed="11.21" duration="784.00" routeLength="6581.41" waitingTime="150.00" waitingCount="9" stopTime="3.00" timeLoss="290.51" rerouteNo="1" devices="vehroute_79 tripinfo_79 emissions_79" vType="vecType" speedFactor="1.09" vaporized="">
        <emissions CO_abs="53032.565453" CO2_abs="2206171.554399" HC_abs="292.310264" PMx_abs="40.450439" NOx_abs="904.099592" fuel_abs="703678.295887" electricity_abs="0"/>
    </tripinfo>
    <tripinfo id="119" depart="18240.00" departLane="8916767#0_0" departPos="5.10" departSpeed="0.00" departDelay="0.00" arrival="18912.00" arrivalLane="8916767#0_0" arrivalPos="129.66" arrivalSpeed="11.05" duration="672.00" routeLength="5013.92" waitingTime="166.00" waitingCount="8" stopTime="3.00" timeLoss="262.14" rerouteNo="1" devices="vehroute_119 tripinfo_119 emissions_119" vType="vecType" speedFactor="1.10" vaporized="">
        <emissions CO_abs="48375.089597" CO2_abs="1830619.784395" HC_abs="262.349653" PMx_abs="32.848789" NOx_abs="750.852887" fuel_abs="583895.929564" electricity_abs="0"/>
    </tripinfo>
    <tripinfo id="99" depart="18180.00" departLane="-27029204_0" departPos="5.10" departSpeed="0.00" departDelay="0.00" arrival="18919.00" arrivalLane="-27029204_0" arrivalPos="195.60" arrivalSpeed="12.07" duration="739.00" routeLength="5700.35" waitingTime="218.00" waitingCount="9" stopTime="3.00" timeLoss="321.91" rerouteNo="1" devices="vehroute_99 tripinfo_99 emissions_99" vType="vecType" speedFactor="1.10" vaporized="">
        <emissions CO_abs="59996.834526" CO2_abs="2158453.070823" HC_abs="323.038874" PMx_abs="41.339014" NOx_abs="893.896895" fuel_abs="688461.366392" electricity_abs="0"/>
    </tripinfo>
    <tripinfo id="105" depart="18183.00" departLane="8915254_0" departPos="5.10" departSpeed="0.00" departDelay="3.00" arrival="18923.00" arrivalLane="8915254_0" arrivalPos="317.12" arrivalSpeed="23.66" duration="740.00" routeLength="5890.78" waitingTime="215.00" waitingCount="10" stopTime="3.00" timeLoss="324.56" rerouteNo="2" devices="vehroute_105 tripinfo_105 emissions_105" vType="vecType" speedFactor="1.07" vaporized="">
        <emissions CO_abs="61262.345870" CO2_abs="2226291.910391" HC_abs="330.880578" PMx_abs="43.415513" NOx_abs="924.385902" fuel_abs="710098.269617" electricity_abs="0"/>
    </tripinfo>
    <tripinfo id="20" depart="18000.00" departLane="123867455_0" departPos="5.10" departSpeed="0.00" departDelay="0.00" arrival="18925.00" arrivalLane="123867455_0" arrivalPos="904.85" arrivalSpeed="29.14" duration="925.00" routeLength="7628.28" waitingTime="285.00" waitingCount="11" stopTime="3.00" timeLoss="403.94" rerouteNo="2" devices="vehroute_20 tripinfo_20 emissions_20" vType="vecType" speedFactor="1.02" vaporized="">
        <emissions CO_abs="80095.245243" CO2_abs="2835170.385213" HC_abs="431.750475" PMx_abs="56.034406" NOx_abs="1164.092504" fuel_abs="904308.135418" electricity_abs="0"/>
    </tripinfo>
    <tripinfo id="88" depart="18123.00" departLane="31129765_0" departPos="5.10" departSpeed="0.00" departDelay="3.00" arrival="18927.00" arrivalLane="31129765_0" arrivalPos="639.51" arrivalSpeed="22.02" duration="804.00" routeLength="6946.37" waitingTime="275.00" waitingCount="8" stopTime="3.00" timeLoss="366.80" rerouteNo="1" devices="vehroute_88 tripinfo_88 emissions_88" vType="vecType" speedFactor="1.01" vaporized="">
        <emissions CO_abs="72387.935243" CO2_abs="2528405.580776" HC_abs="388.721771" PMx_abs="50.508627" NOx_abs="1039.165027" fuel_abs="806462.124920" electricity_abs="0"/>
    </tripinfo>
    <tripinfo id="127" depart="18240.00" departLane="-204967525_0" departPos="5.10" departSpeed="0.00" departDelay="0.00" arrival="18928.00" arrivalLane="-204967525_1" arrivalPos="146.26" arrivalSpeed="10.85" duration="688.00" routeLength="5247.72" waitingTime="122.00" waitingCount="10" stopTime="3.00" timeLoss="219.14" rerouteNo="1" devices="vehroute_127 tripinfo_127 emissions_127" vType="vecType" speedFactor="1.01" vaporized="">
        <emissions CO_abs="42248.162536" CO2_abs="1668576.965010" HC_abs="230.791786" PMx_abs="28.036414" NOx_abs="674.043749" fuel_abs="532211.498660" electricity_abs="0"/>
    </tripinfo>