<?xml version="1.0" encoding="UTF-8"?>

<!-- generated on 2022-12-14 15:18:26 by Eclipse SUMO sumo Version 1.14.1
<configuration xmlns:xsi="http://www.w3.org/2001/XMLSchema-instance" xsi:noNamespaceSchemaLocation="http://sumo.dlr.de/xsd/sumoConfiguration.xsd">

    <input>
        <net-file value="./strategia2_config/../san_francisco.net.xml"/>
        <route-files value="./strategia2_config/../san_francisco.rou.xml"/>
        <additional-files value="./strategia2_config/../san_francisco.poly.xml,./strategia2_config/../parking_capacity_100%25/off_parking_100%25.add.xml,./strategia2_config/../parking_capacity_100%25/on_parking_100%25.add.xml"/>
    </input>

    <output>
        <emission-output value="./strategia2_config/../output/strategia2/100%25/emissions.xml"/>
        <tripinfo-output value="./strategia2_config/../output/strategia2/100%25/tripinfo.xml"/>
        <vehroute-output value="./strategia2_config/../output/strategia2/100%25/vehroute.xml"/>
        <stop-output value="./strategia2_config/../output/strategia2/100%25/stops.xml"/>
        <collision-output value="./strategia2_config/../output/strategia2/100%25/collision.xml"/>
        <statistic-output value="./strategia2_config/../output/strategia2/100%25/statistic.xml"/>
    </output>

    <time>
        <step-length value="1"/>
    </time>

    <processing>
        <ignore-route-errors value="false"/>
        <time-to-teleport value="-1"/>
    </processing>

    <report>
        <verbose value="true"/>
        <xml-validation value="never"/>
    </report>

    <traci_server>
        <remote-port value="53332"/>
    </traci_server>

    <gui_only>
        <gui-settings-file value="./strategia2_config/../gui-settings.cfg"/>
        <start value="true"/>
    </gui_only>

</configuration>
-->

<routes xmlns:xsi="http://www.w3.org/2001/XMLSchema-instance" xsi:noNamespaceSchemaLocation="http://sumo.dlr.de/xsd/routes_file.xsd">
    <vehicle id="30" type="vecType" depart="18000.00" arrival="18336.00">
        <routeDistribution>
            <route replacedOnEdge="206662304#13" replacedOnIndex="19" reason="traci:changeTarget" replacedAtTime="18158.00" probability="0" edges="-91181760#0 29059494 29059495#0 29059495#3 -133376114#2 30029172#2 27166421#8 24335483#4 -288065247#0 8920093#1 254758127#0 72981813#3 26938338#0 -87297164#7 -87297164#6 -87297164#5 -87297164#4 -87297164#3 206662304#12 206662304#13"/>
            <route edges="-91181760#0 29059494 29059495#0 29059495#3 -133376114#2 30029172#2 27166421#8 24335483#4 -288065247#0 8920093#1 254758127#0 72981813#3 26938338#0 -87297164#7 -87297164#6 -87297164#5 -87297164#4 -87297164#3 206662304#12 206662304#13 -206662304#13 -206662304#12 87297164#3 87297164#4 87297164#5 87297164#6 87297164#7 87297164#8 26938417 26938418#0 26938418#1 26938418#2 -24335483#8 -24335483#6 -24335483#5 -27166421#8 -27166421#7 -27166421#6 -27166421#5 27398045#7 8919058 8916882#0 -91181760#0"/>
        </routeDistribution>
        <stop parkingArea="parkingArea_206662304#13_0_660" duration="3.00" parking="1"/>
    </vehicle>

    <vehicle id="1" type="vecType" depart="18000.00" arrival="18354.00">
        <routeDistribution>
            <route replacedOnEdge="8922291#0" replacedOnIndex="12" reason="traci:changeTarget" replacedAtTime="18128.00" probability="0" edges="31129765 123741465 8915117 8915115#0 8915115#1 254299118#0 254299118#1 254299118#2 254299118#3 -254305050#1 -254305050#0 -264874017#5 8922291#0"/>
            <route edges="31129765 123741465 8915117 8915115#0 8915115#1 254299118#0 254299118#1 254299118#2 254299118#3 -254305050#1 -254305050#0 -264874017#5 8922291#0 214545530#7 143617585#0 143617585#1 143617585#2 254305033#0 254305033#1 254305033#2 254305033#3 254305033#4 254305033#5 8915588 254299122 154966358 gneE27 31129765"/>
        </routeDistribution>
        <stop parkingArea="parkingArea_8922291#0_0_762" duration="3.00" parking="1"/>
    </vehicle>

    <vehicle id="45" type="vecType" depart="18060.00" arrival="18367.00">
        <routeDistribution>
            <route replacedOnEdge="-43100739" replacedOnIndex="12" reason="traci:changeTarget" replacedAtTime="18211.00" probability="0" edges="31129765 123741465 8915117 27432609 157812260#7 157812260#8 157812260#9 25657409#10 25657409#11 25657409#12 25657409#13 25657409#14 -43100739"/>
            <route edges="31129765 123741465 8915117 27432609 157812260#7 157812260#8 157812260#9 25657409#10 25657409#11 25657409#12 25657409#13 25657409#14 -43100739 43100739 25657409#15 43100740 254305033#1 254305033#2 254305033#3 254305033#4 254305033#5 8915588 254299122 154966358 gneE27 31129765"/>
        </routeDistribution>
        <stop parkingArea="parkingArea_-43100739_0_743" duration="3.00" parking="1"/>
    </vehicle>

    <vehicle id="60" type="vecType" depart="18060.00" arrival="18488.00">
        <routeDistribution>
            <route replacedOnEdge="247966218#3" replacedOnIndex="4" reason="traci:changeTarget" replacedAtTime="18165.00" probability="0" edges="8916792 28518571#0 28518571#1 157812260#0 247966218#3"/>
            <route edges="8916792 28518571#0 28518571#1 157812260#0 247966218#3 247966218#4 247966218#5 247966218#6 247966218#7 247966218#8 141688972#0 141688972#1 162931811#0 -7373736#0 7373728 -133755923#0 -28518571#1 -28518571#0 -8916792 8916792"/>
        </routeDistribution>
        <stop parkingArea="parkingArea_247966218#3_0_791" duration="3.00" parking="1"/>
    </vehicle>

    <vehicle id="74" type="vecType" depart="18120.00" arrival="18539.00">
        <routeDistribution>
            <route replacedOnEdge="254448252#0" replacedOnIndex="8" reason="traci:setRoute" replacedAtTime="18285.00" probability="0" edges="144489137#0 144489137#1 144489137#2 254758122#6 254758122#7 225847522#0 8922164#5 8922164#6 254448252#0 -8918039#1"/>
            <route replacedOnEdge="254759928#0" replacedOnIndex="11" reason="traci:changeTarget" replacedAtTime="18359.00" probability="0" edges="144489137#0 144489137#1 144489137#2 254758122#6 254758122#7 225847522#0 8922164#5 8922164#6 254448252#0 -8918039#1 225806031#2 254759928#0"/>
            <route edges="144489137#0 144489137#1 144489137#2 254758122#6 254758122#7 225847522#0 8922164#5 8922164#6 254448252#0 -8918039#1 225806031#2 254759928#0 225847522#2 27167270#0 27167270#1 27167270#2 27167302#0 254759936 254448248 254448249#0 254448249#2 254448249#4 91181767 gneE12 144489137#0"/>
        </routeDistribution>
        <stop parkingArea="parkingArea_254759928#0_0_332" duration="3.00" parking="1"/>
    </vehicle>

    <vehicle id="76" type="vecType" depart="18120.00" arrival="18576.00">
        <routeDistribution>
            <route replacedOnEdge="-25371463" replacedOnIndex="14" reason="traci:changeTarget" replacedAtTime="18302.00" probability="0" edges="225806031#0 -8918039#0 8922072#0 8922072#1 8918033#0 8918033#1 8918033#2 89624695#0 89624695#2 89624695#3 27029263 -24335439#2 8917500#1 8921849#1 -25371463"/>
            <route edges="225806031#0 -8918039#0 8922072#0 8922072#1 8918033#0 8918033#1 8918033#2 89624695#0 89624695#2 89624695#3 27029263 -24335439#2 8917500#1 8921849#1 -25371463 25371463 47170567#0 24335439#1 24335439#2 -27029263 -88572874#2 -88572874#1 -88572874#0 88572943#0 88572943#1 8920338 225847523 -225853134 -8922072#1 -8922072#0 8918039#0 8918039#1 254448252#1 gneE13 225806031#0"/>
        </routeDistribution>
        <stop parkingArea="parkingArea_-25371463_0_928" duration="3.00" parking="1"/>
    </vehicle>

    <vehicle id="21" type="vecType" depart="18000.00" arrival="18621.00">
        <routeDistribution>
            <route replacedOnEdge="-35675861#1" replacedOnIndex="20" reason="traci:setRoute" replacedAtTime="18280.00" probability="0" edges="27167762 123741465 8915117 8915115#0 8915115#1 254299118#0 254299118#1 254299118#2 254299118#3 254308548#0 254308548#2 186400365 143666207#0 254299117#0 254299117#1 -88559661#2 28842183 -283537644#1 -283537552#1 -283537552#0 -35675861#1 35675861#1"/>
            <route replacedOnEdge="-35675861#1" replacedOnIndex="22" reason="traci:changeTarget" replacedAtTime="18378.00" probability="0" edges="27167762 123741465 8915117 8915115#0 8915115#1 254299118#0 254299118#1 254299118#2 254299118#3 254308548#0 254308548#2 186400365 143666207#0 254299117#0 254299117#1 -88559661#2 28842183 -283537644#1 -283537552#1 -283537552#0 -35675861#1 35675861#1 -35675861#1 -35675861#0 -35675862 -88466055#1 27397927"/>
            <route edges="27167762 123741465 8915117 8915115#0 8915115#1 254299118#0 254299118#1 254299118#2 254299118#3 254308548#0 254308548#2 186400365 143666207#0 254299117#0 254299117#1 -88559661#2 28842183 -283537644#1 -283537552#1 -283537552#0 -35675861#1 35675861#1 -35675861#1 35675861#1 283537552#0 283537552#1 283537644#0 283537644#2 88559702#0 88559702#1 88559702#2 25758528#0 25758528#1 8915151 31129732#1 31129732#2 254299122 8915263 gneE20 27167762"/>
        </routeDistribution>
        <stop parkingArea="parkingArea_-35675861#1_0_460" duration="3.00" parking="1"/>
    </vehicle>

    <vehicle id="10" type="vecType" depart="18000.00" arrival="18639.00">
        <routeDistribution>
            <route replacedOnEdge="47172745" replacedOnIndex="7" reason="traci:setRoute" replacedAtTime="18239.00" probability="0" edges="90077241 8921938 110361656 111319423 27397919 179235243#1 364480068#1 47172745 91181771#0"/>
            <route replacedOnEdge="88559691#4" replacedOnIndex="9" reason="traci:changeTarget" replacedAtTime="18338.00" probability="0" edges="90077241 8921938 110361656 111319423 27397919 179235243#1 364480068#1 47172745 91181771#0 88559691#4"/>
            <route edges="90077241 8921938 110361656 111319423 27397919 179235243#1 364480068#1 47172745 91181771#0 88559691#4 225518502#0 329607867 27772070 202317709 50690291#0 50690291#1 gneE4 90077241"/>
        </routeDistribution>
        <stop parkingArea="parkingArea_88559691#4_0_101" duration="3.00" parking="1"/>
    </vehicle>

    <vehicle id="49" type="vecType" depart="18063.00" arrival="18646.00">
        <routeDistribution>
            <route replacedOnEdge="31129732#0" replacedOnIndex="15" reason="traci:changeTarget" replacedAtTime="18511.00" probability="0" edges="31129765 123741465 123741454#0 123741454#1 123741454#2 123741454#3 123741452 202317709 50690291#0 50690291#1 gneE4 90077241 8921938 120813417 202485364 31129732#0"/>
            <route edges="31129765 123741465 123741454#0 123741454#1 123741454#2 123741454#3 123741452 202317709 50690291#0 50690291#1 gneE4 90077241 8921938 120813417 202485364 31129732#0 31129732#1 31129732#2 254299122 154966358 gneE27 31129765"/>
        </routeDistribution>
        <stop parkingArea="parkingArea_31129732#0_0_532" duration="3.00" parking="1"/>
    </vehicle>

</routes>
