<?xml version="1.0" encoding="UTF-8"?>

<!-- generated on 2023-01-09 09:24:18 by Eclipse SUMO sumo Version 1.14.1
<configuration xmlns:xsi="http://www.w3.org/2001/XMLSchema-instance" xsi:noNamespaceSchemaLocation="http://sumo.dlr.de/xsd/sumoConfiguration.xsd">

    <input>
        <net-file value="./strategia2_config/../san_francisco.net.xml"/>
        <route-files value="./strategia2_config/../san_francisco.rou.xml"/>
        <additional-files value="./strategia2_config/../san_francisco.poly.xml,./strategia2_config/../parking_capacity_100%25/off_parking_100%25.add.xml,./strategia2_config/../parking_capacity_100%25/on_parking_100%25.add.xml"/>
    </input>

    <output>
        <emission-output value="./strategia2_config/../output/strategia2/100%25/emissions.xml"/>
        <tripinfo-output value="./strategia2_config/../output/strategia2/100%25/tripinfo.xml"/>
        <vehroute-output value="./strategia2_config/../output/strategia2/100%25/vehroute.xml"/>
        <stop-output value="./strategia2_config/../output/strategia2/100%25/stops.xml"/>
        <collision-output value="./strategia2_config/../output/strategia2/100%25/collision.xml"/>
        <statistic-output value="./strategia2_config/../output/strategia2/100%25/statistic.xml"/>
    </output>

    <time>
        <step-length value="1"/>
    </time>

    <processing>
        <ignore-route-errors value="false"/>
    </processing>

    <report>
        <verbose value="true"/>
        <xml-validation value="never"/>
    </report>

    <traci_server>
        <remote-port value="54143"/>
    </traci_server>

    <gui_only>
        <gui-settings-file value="./strategia2_config/../gui-settings.cfg"/>
        <start value="true"/>
    </gui_only>

</configuration>
-->

<routes xmlns:xsi="http://www.w3.org/2001/XMLSchema-instance" xsi:noNamespaceSchemaLocation="http://sumo.dlr.de/xsd/routes_file.xsd">
    <vehicle id="31" type="vecType" depart="18006.00" arrival="19624.00">
        <routeDistribution>
            <route replacedOnEdge="111089307#4" replacedOnIndex="20" reason="traci:changeTarget" replacedAtTime="18485.00" probability="0" edges="123867455 8920391#0 255330048 255351748 -26943653#1 -143617589#6 143617589#3 -143617587 -133755923#1 -133755923#0 157812260#0 -247966218#2 -26943758#1 162931810 256787755#0 254299121#8 254299121#9 25758513 27029200#0 -111089307#4 111089307#4"/>
            <route edges="123867455 8920391#0 255330048 255351748 -26943653#1 -143617589#6 143617589#3 -143617587 -133755923#1 -133755923#0 157812260#0 -247966218#2 -26943758#1 162931810 256787755#0 254299121#8 254299121#9 25758513 27029200#0 -111089307#4 111089307#4 -27029200#1 -25758513 27029265#3 186400366#0 186400366#1 186400366#2 247960234#1 247966218#0 247966218#3 247966218#4 247966218#5 247966218#6 247966218#7 247966218#8 8918874 gneE21 123867455"/>
        </routeDistribution>
        <stop parkingArea="parkingArea_111089307#4_0_960" duration="916.00" parking="1"/>
    </vehicle>

    <vehicle id="6" type="vecType" depart="18000.00" arrival="20156.00">
        <routeDistribution>
            <route replacedOnEdge="8922307" replacedOnIndex="23" reason="traci:changeTarget" replacedAtTime="18512.00" probability="0" edges="225806031#0 225806031#2 254759928#0 254759928#1 254759928#2 254759928#3 254759927#0 254759927#1 111547662#0 88572901#0 264874017#0 25657409#17 25657409#18 25657409#19 255168047#0 255168047#3 255168046#0 255168046#2 225518502#0 329607867 -283537552#1 -283537552#0 -35675861#1 8922307"/>
            <route edges="225806031#0 225806031#2 254759928#0 254759928#1 254759928#2 254759928#3 254759927#0 254759927#1 111547662#0 88572901#0 264874017#0 25657409#17 25657409#18 25657409#19 255168047#0 255168047#3 255168046#0 255168046#2 225518502#0 329607867 -283537552#1 -283537552#0 -35675861#1 8922307 364480069 364480068#0 364480068#1 364480068#2 88572881#0 305585433 228186482#0 204884378#0 225719777#0 224200967 224384019#0 204884387#0 228196396 204884397 228201785#0 228201785#1 225806043 225806042#0 8922164#0 8922164#1 8922164#2 8922164#3 8922164#4 8922164#5 8922164#6 254448252#0 254448252#1 gneE13 225806031#0"/>
        </routeDistribution>
        <stop parkingArea="parkingArea_8922307_0_62" duration="981.00" parking="1"/>
    </vehicle>

    <vehicle id="148" type="vecType" depart="18480.00" arrival="20181.00">
        <routeDistribution>
            <route replacedOnEdge="225518502#0" replacedOnIndex="21" reason="traci:setRoute" replacedAtTime="18786.00" probability="0" edges="31129765 123741465 8915117 27432609 157812260#7 157812260#8 157812260#9 25657409#10 25657409#11 25657409#12 25657409#13 25657409#14 25657409#15 25657409#16 25657409#17 25657409#18 25657409#19 255168047#0 255168047#3 255168046#0 255168046#2 225518502#0 225518502#2"/>
            <route replacedOnEdge="283537644#0" replacedOnIndex="24" reason="traci:changeTarget" replacedAtTime="18812.00" probability="0" edges="31129765 123741465 8915117 27432609 157812260#7 157812260#8 157812260#9 25657409#10 25657409#11 25657409#12 25657409#13 25657409#14 25657409#15 25657409#16 25657409#17 25657409#18 25657409#19 255168047#0 255168047#3 255168046#0 255168046#2 225518502#0 225518502#2 8919403#0 283537644#0 283537644#2 -225518512#1 -88559691#6 88559691#4"/>
            <route edges="31129765 123741465 8915117 27432609 157812260#7 157812260#8 157812260#9 25657409#10 25657409#11 25657409#12 25657409#13 25657409#14 25657409#15 25657409#16 25657409#17 25657409#18 25657409#19 255168047#0 255168047#3 255168046#0 255168046#2 225518502#0 225518502#2 8919403#0 283537644#0 283537644#2 88559702#0 88559702#1 88559702#2 25758528#0 25758528#1 8915151 31129732#1 31129732#2 254299122 154966358 gneE27 31129765"/>
        </routeDistribution>
        <stop parkingArea="parkingArea_283537644#0_0_456" duration="1163.00" parking="1"/>
    </vehicle>

    <vehicle id="195" type="vecType" depart="18660.00" arrival="20248.00">
        <routeDistribution>
            <route replacedOnEdge="-254396709#1" replacedOnIndex="15" reason="traci:changeTarget" replacedAtTime="18850.00" probability="0" edges="224384035#0 224384035#1 30029560#0 -25372932#4 27398045#5 27398045#6 27398045#7 8919058 8916882#0 -91181760#0 -100400946 -91181759#5 -91181759#1 -287958606#3 -287958606#1 -254396709#1"/>
            <route edges="224384035#0 224384035#1 30029560#0 -25372932#4 27398045#5 27398045#6 27398045#7 8919058 8916882#0 -91181760#0 -100400946 -91181759#5 -91181759#1 -287958606#3 -287958606#1 -254396709#1 254396719#0 254756526#0 254971069#0 27054195#0 27054196 262943780#0 262943780#1 262943780#3 262943780#4 258613674#0 258613674#1 91182067 30029172#0 30029172#2 30029172#5 30029172#6 254758123#0 30035682#0 30035682#1 gneE7 224384035#0"/>
        </routeDistribution>
        <stop parkingArea="parkingArea_-254396709#1_0_358" duration="1084.00" parking="1"/>
    </vehicle>

    <vehicle id="123" type="vecType" depart="18240.00" arrival="20339.00">
        <routeDistribution>
            <route replacedOnEdge="-99231475" replacedOnIndex="29" reason="traci:changeTarget" replacedAtTime="18732.00" probability="0" edges="31129765 123741465 8915117 27432609 157812260#7 157812260#8 157812260#9 25657409#10 25657409#11 25657409#12 25657409#13 25657409#14 25657409#15 25657409#16 25657409#17 25657409#18 25657409#19 255168047#0 255168047#3 255168046#0 255168046#2 225518502#0 225518502#2 225518502#3 111049100#0 364480069 364480068#0 364480068#1 -225432462#1 -99231475"/>
            <route edges="31129765 123741465 8915117 27432609 157812260#7 157812260#8 157812260#9 25657409#10 25657409#11 25657409#12 25657409#13 25657409#14 25657409#15 25657409#16 25657409#17 25657409#18 25657409#19 255168047#0 255168047#3 255168046#0 255168046#2 225518502#0 225518502#2 225518502#3 111049100#0 364480069 364480068#0 364480068#1 -225432462#1 -99231475 99231475 225432462#0 47172745 91181771#0 91181771#3 91181771#4 91181771#5 91181771#6 283534317#2 283534317#5 283534317#6 283534317#8 8915151 31129732#1 31129732#2 254299122 154966358 gneE27 31129765"/>
        </routeDistribution>
        <stop parkingArea="parkingArea_-99231475_0_428" duration="1214.00" parking="1"/>
    </vehicle>

    <vehicle id="162" type="vecType" depart="18543.00" arrival="20367.00">
        <routeDistribution>
            <route replacedOnEdge="-225518512#1" replacedOnIndex="9" reason="traci:changeTarget" replacedAtTime="18819.00" probability="0" edges="90077241 8921938 120813417 31129372 35675861#1 283537552#0 283537552#1 283537644#0 283537644#2 -225518512#1"/>
            <route edges="90077241 8921938 120813417 31129372 35675861#1 283537552#0 283537552#1 283537644#0 283537644#2 -225518512#1 225518502#0 329607867 27772070 202317709 50690291#0 50690291#1 gneE4 90077241"/>
        </routeDistribution>
        <stop parkingArea="parkingArea_-225518512#1_0_517" duration="1182.00" parking="1"/>
    </vehicle>

    <vehicle id="206" type="vecType" depart="18963.00" arrival="20430.00">
        <routeDistribution>
            <route replacedOnEdge="120256350#3" replacedOnIndex="10" reason="traci:changeTarget" replacedAtTime="19205.00" probability="0" edges="90077241 8921938 110361656 111319423 27397919 179235243#1 364480068#1 -225432462#1 -99231475 -254971064#1 120256350#3"/>
            <route edges="90077241 8921938 110361656 111319423 27397919 179235243#1 364480068#1 -225432462#1 -99231475 -254971064#1 120256350#3 -242896157#0 -202485361#1 -99231486 364480601#0 283537380#0 283537380#1 283537380#2 8915351 50690291#0 50690291#1 gneE4 90077241"/>
        </routeDistribution>
        <stop parkingArea="parkingArea_120256350#3_0_52" duration="925.00" parking="1"/>
    </vehicle>

    <vehicle id="105" type="vecType" depart="18183.00" arrival="20450.00">
        <routeDistribution>
            <route replacedOnEdge="91181771#3" replacedOnIndex="23" reason="traci:changeTarget" replacedAtTime="18730.00" probability="0" edges="8915254 256787755#0 256787755#2 256787755#3 25657409#4 25657409#5 25657409#7 25657409#9 25657409#10 25657409#11 25657409#12 25657409#13 25657409#14 25657409#15 25657409#16 25657409#17 25657409#18 25657409#19 255168047#0 255168047#3 255168046#0 255168046#2 -88559691#6 91181771#3"/>
            <route edges="8915254 256787755#0 256787755#2 256787755#3 25657409#4 25657409#5 25657409#7 25657409#9 25657409#10 25657409#11 25657409#12 25657409#13 25657409#14 25657409#15 25657409#16 25657409#17 25657409#18 25657409#19 255168047#0 255168047#3 255168046#0 255168046#2 -88559691#6 91181771#3 91181771#4 91181771#5 91181771#6 283534317#2 283534317#5 283534317#6 283534317#8 8915151 31129732#1 26779355 8915704#0 8915704#1 254299121#6 254299121#8 8919947#0 8919947#1 gneE16 8915254"/>
        </routeDistribution>
        <stop parkingArea="parkingArea_91181771#3_3_519" duration="1395.00" parking="1"/>
    </vehicle>

    <vehicle id="153" type="vecType" depart="18483.00" arrival="20487.00">
        <routeDistribution>
            <route replacedOnEdge="287958607#3" replacedOnIndex="23" reason="traci:changeTarget" replacedAtTime="18999.00" probability="0" edges="142972028#1 89624695#0 8916932 88572943#1 -225847525 -365816004 -225847526 -228215681 -225432464 -207761516 -204884121 -225806041 -225806042#1 -365816000 -228201785#1 -228201785#0 -204884397 88597544#0 88597544#2 224316520#0 224316520#1 254297759#0 224316514#0 287958607#3"/>
            <route edges="142972028#1 89624695#0 8916932 88572943#1 -225847525 -365816004 -225847526 -228215681 -225432464 -207761516 -204884121 -225806041 -225806042#1 -365816000 -228201785#1 -228201785#0 -204884397 88597544#0 88597544#2 224316520#0 224316520#1 254297759#0 224316514#0 287958607#3 287958607#4 133733590#0 204884387#0 228196396 204884397 228201785#0 228201785#1 225806043 225806042#0 225806041 204884121 207761516 225432464 228215681 225847526 204963435 8917813 225847519#0 225847519#1 225847519#4 gneE14 142972028#1"/>
        </routeDistribution>
        <stop parkingArea="parkingArea_287958607#3_0_328" duration="1082.00" parking="1"/>
    </vehicle>

    <vehicle id="126" type="vecType" depart="18240.00" arrival="20534.00">
        <routeDistribution>
            <route replacedOnEdge="32931798#3" replacedOnIndex="21" reason="traci:setRoute" replacedAtTime="18712.00" probability="0" edges="-133755930#1 -133755930#0 27041554#0 27041554#1 8922234#0 8922234#2 -255330038#2 -255330038#1 -99231466 27397692 8918460#0 99231463#0 224373751 28319343#0 28319343#1 28319343#2 28319343#3 254756521#0 254756521#3 254756521#5 254756521#6 32931798#3 8922560#0"/>
            <route replacedOnEdge="262943781" replacedOnIndex="25" reason="traci:changeTarget" replacedAtTime="18724.00" probability="0" edges="-133755930#1 -133755930#0 27041554#0 27041554#1 8922234#0 8922234#2 -255330038#2 -255330038#1 -99231466 27397692 8918460#0 99231463#0 224373751 28319343#0 28319343#1 28319343#2 28319343#3 254756521#0 254756521#3 254756521#5 254756521#6 32931798#3 8922560#0 254756521#6 32931798#3 262943781 224199014#0 224199018#0 224199018#1 224199018#2 88597575#6 27398048#4 27398048#2"/>
            <route edges="-133755930#1 -133755930#0 27041554#0 27041554#1 8922234#0 8922234#2 -255330038#2 -255330038#1 -99231466 27397692 8918460#0 99231463#0 224373751 28319343#0 28319343#1 28319343#2 28319343#3 254756521#0 254756521#3 254756521#5 254756521#6 32931798#3 8922560#0 254756521#6 32931798#3 262943781 224199014#0 224199013#0 224199013#1 224199013#2 224373753 88597563#0 256400244#0 225432457 27398032#0 -43100046 8917778 174822357#0 -255330036#12 -255330036#11 -255330036#10 88559680#5 224384059#0 8920394#1 27656675 133755930#0 133755930#1 -133755930#1"/>
        </routeDistribution>
        <stop parkingArea="parkingArea_262943781_0_356" duration="1255.00" parking="1"/>
    </vehicle>

    <vehicle id="70" type="vecType" depart="18120.00" arrival="20611.00">
        <routeDistribution>
            <route replacedOnEdge="24310636#2" replacedOnIndex="33" reason="traci:changeTarget" replacedAtTime="18605.00" probability="0" edges="255330036#13 -255330036#13 -255330036#12 -255330036#11 -255330036#10 -255330036#9 -255330036#8 -255330036#7 -255330036#6 -255330036#4 -255330036#3 -255330036#2 -141688972#2 -141688972#1 -141688972#0 -247966218#8 -247966218#7 -247966218#6 -247966218#5 -247966218#4 -247966218#3 -247966218#2 -26943758#1 162931810 256787755#0 254299121#8 254299121#9 25758513 27029200#0 -111089307#4 -111089307#3 -111089307#2 -111089307#1 24310636#2"/>
            <route edges="255330036#13 -255330036#13 -255330036#12 -255330036#11 -255330036#10 -255330036#9 -255330036#8 -255330036#7 -255330036#6 -255330036#4 -255330036#3 -255330036#2 -141688972#2 -141688972#1 -141688972#0 -247966218#8 -247966218#7 -247966218#6 -247966218#5 -247966218#4 -247966218#3 -247966218#2 -26943758#1 162931810 256787755#0 254299121#8 254299121#9 25758513 27029200#0 -111089307#4 -111089307#3 -111089307#2 -111089307#1 24310636#2 -24310636#2 111089307#1 111089307#2 111089307#3 111089307#4 -27029200#1 -25758513 27029265#3 186400366#0 186400366#1 186400366#2 186400366#5 186400366#6 8915123 123741454#1 8915415 107674372#0 255330036#0 255330036#3 255330036#4 255330036#5 255330036#7 255330036#8 255330036#9 255330036#10 255330036#11 255330036#12 255330036#13"/>
        </routeDistribution>
        <stop parkingArea="parkingArea_24310636#2_0_938" duration="1643.00" parking="1"/>
    </vehicle>

    <vehicle id="128" type="vecType" depart="18300.00" arrival="20668.00">
        <routeDistribution>
            <route replacedOnEdge="88463829#0" replacedOnIndex="31" reason="traci:changeTarget" replacedAtTime="18921.00" probability="0" edges="-133781749 -133781759#2 -133781759#1 -133781759#0 -27167270#2 -27167270#1 -27167270#0 -263855294#3 -263855294#0 -35973460#1 -228215681 -225432464 -207761516 111547662#0 88572901#0 264874017#0 25657409#17 25657409#18 25657409#19 255168047#0 255168047#3 255168046#0 255168046#2 225518502#0 225518502#2 225518502#3 111049100#0 99231460 99231482 27397691 242896157#1 88463829#0"/>
            <route edges="-133781749 -133781759#2 -133781759#1 -133781759#0 -27167270#2 -27167270#1 -27167270#0 -263855294#3 -263855294#0 -35973460#1 -228215681 -225432464 -207761516 111547662#0 88572901#0 264874017#0 25657409#17 25657409#18 25657409#19 255168047#0 255168047#3 255168046#0 255168046#2 225518502#0 225518502#2 225518502#3 111049100#0 99231460 99231482 27397691 242896157#1 88463829#0 88466055#0 88466055#1 99231468#0 35675861#0 35675861#1 283537552#0 283537552#1 283537644#0 283537644#2 88559702#0 88559702#1 88559702#2 25758528#0 25758528#1 8915151 31129732#1 26779355 8915704#0 8915704#1 254299121#6 256787755#2 256787755#3 256787755#5 91181769#0 88572943#0 88572943#1 8920338 225847523 -225853134 -8922072#1 -8922072#0 133781749 -133781749"/>
        </routeDistribution>
        <stop parkingArea="parkingArea_88463829#0_0_44" duration="1310.00" parking="1"/>
    </vehicle>

    <vehicle id="168" type="vecType" depart="18540.00" arrival="20684.00">
        <routeDistribution>
            <route replacedOnEdge="186400366#2" replacedOnIndex="8" reason="traci:setRoute" replacedAtTime="18658.00" probability="0" edges="191296172#0 111089307#3 111089307#4 -27029200#1 -25758513 27029265#3 186400366#0 186400366#1 186400366#2 247960234#1"/>
            <route replacedOnEdge="247966218#0" replacedOnIndex="10" reason="traci:changeTarget" replacedAtTime="18692.00" probability="0" edges="191296172#0 111089307#3 111089307#4 -27029200#1 -25758513 27029265#3 186400366#0 186400366#1 186400366#2 247960234#1 247966218#0 157812260#3 157812260#4 157812260#5 157812260#6 157812260#7 254305033#5 8915588 254299122 8915263 gneE20 27167762 123741465 123741454#0"/>
            <route edges="191296172#0 111089307#3 111089307#4 -27029200#1 -25758513 27029265#3 186400366#0 186400366#1 186400366#2 247960234#1 247966218#0 -247966218#2 -26943758#1 162931810 256787755#0 254299121#8 254299121#9 25758513 27029200#0 -111089307#4 -111089307#3 -191296172#0 191296172#0"/>
        </routeDistribution>
        <stop parkingArea="parkingArea_247966218#0_0_869" duration="1778.00" parking="1"/>
    </vehicle>

    <vehicle id="205" type="vecType" depart="18960.00" arrival="20701.00">
        <routeDistribution>
            <route replacedOnEdge="8919328#1" replacedOnIndex="24" reason="traci:changeTarget" replacedAtTime="19268.00" probability="0" edges="-24310636#2 111089307#1 111089307#2 191296172#1 25657409#0 25657409#2 25657409#3 25657409#4 25657409#5 25657409#7 25657409#9 25657409#10 25657409#11 25657409#12 25657409#13 25657409#14 25657409#15 25657409#16 25657409#17 25657409#18 25657409#19 255168047#0 255168047#3 255168046#0 8919328#1"/>
            <route edges="-24310636#2 111089307#1 111089307#2 191296172#1 25657409#0 25657409#2 25657409#3 25657409#4 25657409#5 25657409#7 25657409#9 25657409#10 25657409#11 25657409#12 25657409#13 25657409#14 25657409#15 25657409#16 25657409#17 25657409#18 25657409#19 255168047#0 255168047#3 255168046#0 8919328#1 88559702#2 25758528#0 25758528#1 8915151 31129732#1 26779355 8915704#0 8915704#1 254299121#6 254299121#8 254299121#9 25758513 27029200#0 -111089307#4 -111089307#3 -111089307#2 -111089307#1 24310636#2 -24310636#2"/>
        </routeDistribution>
        <stop parkingArea="parkingArea_8919328#1_0_378" duration="1157.00" parking="1"/>
    </vehicle>

    <vehicle id="7" type="vecType" depart="18000.00" arrival="20785.00">
        <routeDistribution>
            <route replacedOnEdge="8921849#1" replacedOnIndex="26" reason="traci:setRoute" replacedAtTime="18531.00" probability="0" edges="224384035#0 224384035#1 254758121#0 254758121#1 254758121#3 26988009#0 26988009#4 254758122#0 254758122#1 254758122#3 254758122#4 254758122#6 254758122#7 225847522#0 225847522#1 225847522#2 254759933#0 254759933#2 254759933#4 204963435 225847525 204963504 204963631 -8917791 -24335439#2 8917500#1 8921849#1 8921849#2"/>
            <route replacedOnEdge="-24310636#0" replacedOnIndex="28" reason="traci:changeTarget" replacedAtTime="18548.00" probability="0" edges="224384035#0 224384035#1 254758121#0 254758121#1 254758121#3 26988009#0 26988009#4 254758122#0 254758122#1 254758122#3 254758122#4 254758122#6 254758122#7 225847522#0 225847522#1 225847522#2 254759933#0 254759933#2 254759933#4 204963435 225847525 204963504 204963631 -8917791 -24335439#2 8917500#1 8921849#1 8921849#2 -24310636#0 24335439#0 24335439#1 24335439#2 8917791"/>
            <route edges="224384035#0 224384035#1 254758121#0 254758121#1 254758121#3 26988009#0 26988009#4 254758122#0 254758122#1 254758122#3 254758122#4 254758122#6 254758122#7 225847522#0 225847522#1 225847522#2 254759933#0 254759933#2 254759933#4 204963435 225847525 204963504 204963631 -8917791 -24335439#2 8917500#1 8921849#1 8921849#2 -24310636#0 24335439#0 24335439#1 24335439#2 -27029263 -88572874#2 -88572874#1 -88572874#0 88572943#0 88572943#1 8920338 225847523 26988030#0 26988030#1 26988030#2 26988030#3 26988030#4 27167302#0 254759936 254448248 254448249#0 254448249#2 254448249#4 91181766#0 91181766#1 254759937#0 254759938#0 254759938#2 254759938#3 -144346316#4 -254758121#3 -254758121#2 -254758121#0 -26938418#4 30035682#0 30035682#1 gneE7 224384035#0"/>
        </routeDistribution>
        <stop parkingArea="parkingArea_-24310636#0_0_933" duration="1753.00" parking="1"/>
    </vehicle>

    <vehicle id="8" type="vecType" depart="18003.00" arrival="20808.00">
        <routeDistribution>
            <route replacedOnEdge="-8921065" replacedOnIndex="32" reason="traci:setRoute" replacedAtTime="18564.00" probability="0" edges="31129765 123741465 8915117 27432609 157812260#7 157812260#8 157812260#9 25657409#10 25657409#11 25657409#12 25657409#13 25657409#14 25657409#15 25657409#16 25657409#17 25657409#18 25657409#19 255168047#0 255168047#3 255168046#0 255168046#2 225518502#0 225518502#2 225518502#3 111049100#0 99231460 99231482 27397691 242896157#1 88463830 88466052#1 8922263#1 -8921065 30831808#0"/>
            <route replacedOnEdge="27571801" replacedOnIndex="36" reason="traci:changeTarget" replacedAtTime="18648.00" probability="0" edges="31129765 123741465 8915117 27432609 157812260#7 157812260#8 157812260#9 25657409#10 25657409#11 25657409#12 25657409#13 25657409#14 25657409#15 25657409#16 25657409#17 25657409#18 25657409#19 255168047#0 255168047#3 255168046#0 255168046#2 225518502#0 225518502#2 225518502#3 111049100#0 99231460 99231482 27397691 242896157#1 88463830 88466052#1 8922263#1 -8921065 30831808#0 -8921065 88463831#0 27571801 -27571801"/>
            <route edges="31129765 123741465 8915117 27432609 157812260#7 157812260#8 157812260#9 25657409#10 25657409#11 25657409#12 25657409#13 25657409#14 25657409#15 25657409#16 25657409#17 25657409#18 25657409#19 255168047#0 255168047#3 255168046#0 255168046#2 225518502#0 225518502#2 225518502#3 111049100#0 99231460 99231482 27397691 242896157#1 88463830 88466052#1 8922263#1 -8921065 30831808#0 -8921065 88463831#0 27571801 120256349 111560682 256400251#0 88572970 88572877#0 88559669 88572948#0 91181771#4 91181771#5 91181771#6 283534317#2 283534317#5 283534317#6 283534317#8 8915151 31129732#1 31129732#2 254299122 154966358 gneE27 31129765"/>
        </routeDistribution>
        <stop parkingArea="parkingArea_27571801_0_414" duration="1661.00" parking="1"/>
    </vehicle>

    <vehicle id="47" type="vecType" depart="18060.00" arrival="20865.00">
        <routeDistribution>
            <route replacedOnEdge="225432462#0" replacedOnIndex="8" reason="traci:changeTarget" replacedAtTime="18300.00" probability="0" edges="90077241 8921938 110361656 111319423 27397919 179235243#1 364480068#1 -225432462#1 225432462#0"/>
            <route edges="90077241 8921938 110361656 111319423 27397919 179235243#1 364480068#1 -225432462#1 225432462#0 47172745 91181770#0 283537380#0 283537380#1 283537380#2 8915351 50690291#0 50690291#1 gneE4 90077241"/>
        </routeDistribution>
        <stop parkingArea="parkingArea_225432462#0_0_60" duration="2220.00" parking="1"/>
    </vehicle>

    <vehicle id="25" type="vecType" depart="18003.00" arrival="20937.00">
        <routeDistribution>
            <route replacedOnEdge="-99231466" replacedOnIndex="19" reason="traci:setRoute" replacedAtTime="18434.00" probability="0" edges="-23883761 28518571#1 133755923#0 133755923#1 143617587 -143617589#6 -143617589#2 -143617589#1 -111550911#3 -111550911#2 -111550911#1 -111550911#0 -111550910#2 -111550910#1 -111550910#0 8922234#0 8922234#2 -255330038#2 -255330038#1 -99231466 99231468#0"/>
            <route replacedOnEdge="8918460#0" replacedOnIndex="23" reason="traci:changeTarget" replacedAtTime="18518.00" probability="0" edges="-23883761 28518571#1 133755923#0 133755923#1 143617587 -143617589#6 -143617589#2 -143617589#1 -111550911#3 -111550911#2 -111550911#1 -111550911#0 -111550910#2 -111550910#1 -111550910#0 8922234#0 8922234#2 -255330038#2 -255330038#1 -99231466 99231468#0 -35675862 27397692 8918460#0"/>
            <route edges="-23883761 28518571#1 133755923#0 133755923#1 143617587 -143617589#6 -143617589#2 -143617589#1 -111550911#3 -111550911#2 -111550911#1 -111550911#0 -111550910#2 -111550910#1 -111550910#0 8922234#0 8922234#2 -255330038#2 -255330038#1 -99231466 99231468#0 -35675862 27397692 8918460#0 -254971064#1 120256350#3 -242896157#0 -27397692 99231466 255330038#0 8918793#3 255330057#0 111550910#1 111550910#2 111550911#0 111550911#1 111550911#2 111550911#3 143617589#0 143617589#2 143617589#3 -143617587 -133755923#1 -133755923#0 -28518571#1 23883761 -23883761"/>
        </routeDistribution>
        <stop parkingArea="parkingArea_8918460#0_0_56" duration="1638.00" parking="1"/>
    </vehicle>

    <vehicle id="82" type="vecType" depart="18123.00" arrival="20942.00">
        <routeDistribution>
            <route replacedOnEdge="8922858#0" replacedOnIndex="20" reason="traci:changeTarget" replacedAtTime="18469.00" probability="0" edges="-133781749 -133781759#2 -133781759#1 -133781759#0 -27167270#2 -27167270#1 -27167270#0 -263855294#3 -263855294#0 -35973460#1 -228215681 -225432464 -207761516 111547662#0 88572901#0 264874017#0 25657409#17 25657409#18 25657409#19 255168047#0 8922858#0"/>
            <route edges="-133781749 -133781759#2 -133781759#1 -133781759#0 -27167270#2 -27167270#1 -27167270#0 -263855294#3 -263855294#0 -35973460#1 -228215681 -225432464 -207761516 111547662#0 88572901#0 264874017#0 25657409#17 25657409#18 25657409#19 255168047#0 8922858#0 8922858#1 -8918381#0 8920242#0 8920242#1 8920242#2 25758528#1 8915151 31129732#1 26779355 8915704#0 8915704#1 254299121#6 256787755#2 256787755#3 256787755#5 91181769#0 88572943#0 88572943#1 8920338 225847523 -225853134 -8922072#1 -8922072#0 133781749 -133781749"/>
        </routeDistribution>
        <stop parkingArea="parkingArea_8922858#0_0_539" duration="2196.00" parking="1"/>
    </vehicle>

    <vehicle id="58" type="vecType" depart="18063.00" arrival="20952.00">
        <routeDistribution>
            <route replacedOnEdge="225806041" replacedOnIndex="22" reason="traci:setRoute" replacedAtTime="18643.00" probability="0" edges="90077241 8921938 110361656 111319423 27397919 179235243#1 364480068#1 364480068#2 88572881#0 305585433 228186482#0 204884378#0 225719777#0 224200967 224384019#0 204884387#0 228196396 204884397 228201785#0 228201785#1 225806043 225806042#0 225806041 204884121"/>
            <route replacedOnEdge="26938124#1" replacedOnIndex="25" reason="traci:changeTarget" replacedAtTime="18669.00" probability="0" edges="90077241 8921938 110361656 111319423 27397919 179235243#1 364480068#1 364480068#2 88572881#0 305585433 228186482#0 204884378#0 225719777#0 224200967 224384019#0 204884387#0 228196396 204884397 228201785#0 228201785#1 225806043 225806042#0 225806041 204884121 26938124#0 26938124#1 26938124#2 277480424#4"/>
            <route edges="90077241 8921938 110361656 111319423 27397919 179235243#1 364480068#1 364480068#2 88572881#0 305585433 228186482#0 204884378#0 225719777#0 224200967 224384019#0 204884387#0 228196396 204884397 228201785#0 228201785#1 225806043 225806042#0 225806041 204884121 26938124#0 26938124#1 26938124#2 277480424#4 254448247#0 -85789165 85789166#0 88572895#0 214545530#0 214545530#3 214545530#4 214545530#7 143617593 26779600 123741454#3 123741452 202317709 50690291#0 50690291#1 gneE4 90077241"/>
        </routeDistribution>
        <stop parkingArea="parkingArea_26938124#1_0_1051" duration="1725.00" parking="1"/>
    </vehicle>

    <vehicle id="0" type="vecType" depart="18000.00" arrival="20955.00">
        <routeDistribution>
            <route replacedOnEdge="-26988030#2" replacedOnIndex="20" reason="traci:setRoute" replacedAtTime="18270.00" probability="0" edges="84823308 157812260#0 157812260#3 157812260#4 157812260#5 157812260#6 157812260#7 157812260#8 157812260#9 157812260#10 157812260#11 88572922#0 35973460#1 263855294#0 263855294#3 27167270#0 27167270#1 27167270#2 -26988030#4 -26988030#3 -26988030#2 -33789567"/>
            <route replacedOnEdge="26988030#3" replacedOnIndex="24" reason="traci:changeTarget" replacedAtTime="18290.00" probability="0" edges="84823308 157812260#0 157812260#3 157812260#4 157812260#5 157812260#6 157812260#7 157812260#8 157812260#9 157812260#10 157812260#11 88572922#0 35973460#1 263855294#0 263855294#3 27167270#0 27167270#1 27167270#2 -26988030#4 -26988030#3 -26988030#2 -33789567 33789567 26988030#2 26988030#3 26988030#4 27167302#0 254759928#0"/>
            <route edges="84823308 157812260#0 157812260#3 157812260#4 157812260#5 157812260#6 157812260#7 157812260#8 157812260#9 157812260#10 157812260#11 88572922#0 35973460#1 263855294#0 263855294#3 27167270#0 27167270#1 27167270#2 -26988030#4 -26988030#3 -26988030#2 -33789567 33789567 26988030#2 26988030#3 26988030#4 -27167270#2 -27167270#1 -27167270#0 -263855294#3 -263855294#0 -35973460#1 -228215681 -225432464 -207761516 111547662#0 88572901#0 264874017#0 25657409#17 25657409#18 214545530#3 214545530#4 214545530#7 143617593 254758139#0 254758139#1 162931811#0 -7373736#0 7373728 -133755923#0 -84823308 84823308"/>
        </routeDistribution>