<?xml version="1.0" encoding="UTF-8"?>

<!-- generated on 2022-12-11 11:13:34 by Eclipse SUMO sumo Version 1.14.1
<configuration xmlns:xsi="http://www.w3.org/2001/XMLSchema-instance" xsi:noNamespaceSchemaLocation="http://sumo.dlr.de/xsd/sumoConfiguration.xsd">

    <input>
        <net-file value="./strategia1_config/../san_francisco.net.xml"/>
        <route-files value="./strategia1_config/../san_francisco.rou.xml"/>
        <additional-files value="./strategia1_config/../san_francisco.poly.xml,./strategia1_config/../parking_capacity_75%25/off_parking_75%25.add.xml,./strategia1_config/../parking_capacity_75%25/on_parking_75%25.add.xml"/>
    </input>

    <output>
        <emission-output value="./strategia1_config/../output/strategia1/75%25/emission.xml"/>
        <summary-output value="./strategia1_config/../output/strategia1/75%25/summary.xml"/>
        <tripinfo-output value="./strategia1_config/../output/strategia1/75%25/tripinfo.xml"/>
        <vehroute-output value="./strategia1_config/../output/strategia1/75%25/vehroute.xml"/>
        <stop-output value="./strategia1_config/../output/strategia1/75%25/stops.xml"/>
        <collision-output value="./strategia1_config/../output/strategia1/75%25/collision.xml"/>
        <statistic-output value="./strategia1_config/../output/strategia1/75%25/statistic.xml"/>
    </output>

    <time>
        <step-length value="1"/>
    </time>

    <processing>
        <ignore-route-errors value="false"/>
        <time-to-teleport value="-1"/>
    </processing>

    <report>
        <verbose value="true"/>
        <xml-validation value="never"/>
    </report>

    <traci_server>
        <remote-port value="64166"/>
    </traci_server>

    <gui_only>
        <gui-settings-file value="./strategia1_config/../gui-settings.cfg"/>
        <start value="true"/>
    </gui_only>

</configuration>
-->

<tripinfos xmlns:xsi="http://www.w3.org/2001/XMLSchema-instance" xsi:noNamespaceSchemaLocation="http://sumo.dlr.de/xsd/tripinfo_file.xsd">
    <tripinfo id="0" depart="18000.00" departLane="84823308_0" departPos="5.10" departSpeed="0.00" departDelay="0.00" arrival="23384.00" arrivalLane="84823308_0" arrivalPos="275.63" arrivalSpeed="11.65" duration="5384.00" routeLength="7168.54" waitingTime="288.00" waitingCount="9" stopTime="4380.00" timeLoss="398.85" rerouteNo="25" devices="vehroute_0 tripinfo_0 emissions_0" vType="vecType" speedFactor="1.06" vaporized="">
        <emissions CO_abs="73599.747196" CO2_abs="2556959.893660" HC_abs="394.078064" PMx_abs="46.344868" NOx_abs="1052.923778" fuel_abs="815573.206520" electricity_abs="0"/>
    </tripinfo>
</tripinfos>
