<?xml version="1.0" encoding="UTF-8"?>

<!-- generated on 2023-01-10 07:31:56 by Eclipse SUMO sumo Version 1.14.1
<configuration xmlns:xsi="http://www.w3.org/2001/XMLSchema-instance" xsi:noNamespaceSchemaLocation="http://sumo.dlr.de/xsd/sumoConfiguration.xsd">

    <input>
        <net-file value="./strategia1_config/../san_francisco.net.xml"/>
        <route-files value="./strategia1_config/../san_francisco.rou.xml"/>
        <additional-files value="./strategia1_config/../san_francisco.poly.xml,./strategia1_config/../parking_capacity_75%25/off_parking_75%25.add.xml,./strategia1_config/../parking_capacity_75%25/on_parking_75%25.add.xml"/>
    </input>

    <output>
        <emission-output value="./strategia1_config/../output/strategia1/75%25/emissions.xml"/>
        <tripinfo-output value="./strategia1_config/../output/strategia1/75%25/tripinfo.xml"/>
        <vehroute-output value="./strategia1_config/../output/strategia1/75%25/vehroute.xml"/>
        <stop-output value="./strategia1_config/../output/strategia1/75%25/stops.xml"/>
        <collision-output value="./strategia1_config/../output/strategia1/75%25/collision.xml"/>
        <statistic-output value="./strategia1_config/../output/strategia1/75%25/statistic.xml"/>
    </output>

    <time>
        <step-length value="1"/>
    </time>

    <processing>
        <ignore-route-errors value="false"/>
    </processing>

    <report>
        <verbose value="true"/>
        <xml-validation value="never"/>
    </report>

    <traci_server>
        <remote-port value="49866"/>
    </traci_server>

    <gui_only>
        <gui-settings-file value="./strategia1_config/../gui-settings.cfg"/>
        <start value="true"/>
    </gui_only>

</configuration>
-->

<tripinfos xmlns:xsi="http://www.w3.org/2001/XMLSchema-instance" xsi:noNamespaceSchemaLocation="http://sumo.dlr.de/xsd/tripinfo_file.xsd">
    <tripinfo id="116" depart="18240.00" departLane="48211196#5_0" departPos="5.10" departSpeed="0.00" departDelay="0.00" arrival="18834.00" arrivalLane="-8916792_0" arrivalPos="615.11" arrivalSpeed="11.60" duration="594.00" routeLength="5413.78" waitingTime="98.00" waitingCount="4" stopTime="0.00" timeLoss="160.92" rerouteNo="0" devices="vehroute_116 tripinfo_116 emissions_116" vType="vecType" speedFactor="1.12" vaporized="">
        <emissions CO_abs="32303.142676" CO2_abs="1561670.562556" HC_abs="182.686978" PMx_abs="25.778615" NOx_abs="623.289261" fuel_abs="498108.726573" electricity_abs="0"/>
    </tripinfo>
    <tripinfo id="64" depart="18060.00" departLane="28319343#2_0" departPos="5.10" departSpeed="0.00" departDelay="0.00" arrival="18872.00" arrivalLane="28319343#2_0" arrivalPos="90.58" arrivalSpeed="9.59" duration="812.00" routeLength="9974.14" waitingTime="217.00" waitingCount="8" stopTime="0.00" timeLoss="285.71" rerouteNo="1" devices="vehroute_64 tripinfo_64 emissions_64" vType="vecType" speedFactor="0.94" vaporized="">
        <emissions CO_abs="65355.422448" CO2_abs="2771530.327929" HC_abs="362.963636" PMx_abs="55.164156" NOx_abs="1093.315761" fuel_abs="884004.050063" electricity_abs="0"/>
    </tripinfo>
    <tripinfo id="71" depart="18120.00" departLane="52432938#0_0" departPos="5.10" departSpeed="0.00" departDelay="0.00" arrival="19058.00" arrivalLane="52432938#0_1" arrivalPos="69.49" arrivalSpeed="10.16" duration="938.00" routeLength="10567.87" waitingTime="331.00" waitingCount="9" stopTime="0.00" timeLoss="411.16" rerouteNo="1" devices="vehroute_71 tripinfo_71 emissions_71" vType="vecType" speedFactor="0.97" vaporized="">
        <emissions CO_abs="87917.066865" CO2_abs="3283350.178707" HC_abs="478.321102" PMx_abs="67.844182" NOx_abs="1312.462607" fuel_abs="1047257.416553" electricity_abs="0"/>
    </tripinfo>
    <tripinfo id="94" depart="18120.00" departLane="254758124#0_0" departPos="5.10" departSpeed="0.00" departDelay="0.00" arrival="19248.00" arrivalLane="254758124#0_1" arrivalPos="106.41" arrivalSpeed="11.27" duration="1128.00" routeLength="12426.75" waitingTime="374.00" waitingCount="15" stopTime="0.00" timeLoss="505.92" rerouteNo="1" devices="vehroute_94 tripinfo_94 emissions_94" vType="vecType" speedFactor="1.09" vaporized="">
        <emissions CO_abs="111798.540671" CO2_abs="4060030.197907" HC_abs="606.424813" PMx_abs="86.501986" NOx_abs="1645.195427" fuel_abs="1294986.106534" electricity_abs="0"/>
    </tripinfo>
    <tripinfo id="228" depart="19080.00" departLane="144489137#3_0" departPos="5.10" departSpeed="0.00" departDelay="0.00" arrival="19382.00" arrivalLane="254756525#26_0" arrivalPos="121.81" arrivalSpeed="10.13" duration="302.00" routeLength="1438.30" waitingTime="140.00" waitingCount="5" stopTime="0.00" timeLoss="172.24" rerouteNo="0" devices="vehroute_228 tripinfo_228 emissions_228" vType="vecType" speedFactor="1.00" vaporized="">
        <emissions CO_abs="30155.829088" CO2_abs="777131.182720" HC_abs="155.391225" PMx_abs="15.714877" NOx_abs="331.907805" fuel_abs="247878.359954" electricity_abs="0"/>
    </tripinfo>
    <tripinfo id="241" depart="19440.00" departLane="288065247#6_0" departPos="5.10" departSpeed="0.00" departDelay="0.00" arrival="19564.00" arrivalLane="254756525#26_0" arrivalPos="121.81" arrivalSpeed="11.22" duration="124.00" routeLength="910.21" waitingTime="31.00" waitingCount="1" stopTime="0.00" timeLoss="44.11" rerouteNo="0" devices="vehroute_241 tripinfo_241 emissions_241" vType="vecType" speedFactor="1.03" vaporized="">
        <emissions CO_abs="8545.423089" CO2_abs="316155.375406" HC_abs="46.203096" PMx_abs="5.524161" NOx_abs="128.871291" fuel_abs="100841.460131" electricity_abs="0"/>
    </tripinfo>
    <tripinfo id="39" depart="18006.00" departLane="31129765_0" departPos="5.10" departSpeed="0.00" departDelay="6.00" arrival="19749.00" arrivalLane="31129765_0" arrivalPos="639.51" arrivalSpeed="19.40" duration="1743.00" routeLength="6254.53" waitingTime="235.00" waitingCount="7" stopTime="1020.00" timeLoss="306.66" rerouteNo="3" devices="vehroute_39 tripinfo_39 emissions_39" vType="vecType" speedFactor="0.90" vaporized="">
        <emissions CO_abs="60873.793225" CO2_abs="2154132.887354" HC_abs="326.796683" PMx_abs="41.954048" NOx_abs="881.523783" fuel_abs="687084.189493" electricity_abs="0"/>
    </tripinfo>
    <tripinfo id="177" depart="18600.00" departLane="-30029708#0_0" departPos="5.10" departSpeed="0.00" departDelay="0.00" arrival="19941.00" arrivalLane="-30029708#0_1" arrivalPos="94.58" arrivalSpeed="10.45" duration="1341.00" routeLength="13187.08" waitingTime="391.00" waitingCount="16" stopTime="0.00" timeLoss="524.74" rerouteNo="1" devices="vehroute_177 tripinfo_177 emissions_177" vType="vecType" speedFactor="0.96" vaporized="">
        <emissions CO_abs="110008.395976" CO2_abs="4083388.273162" HC_abs="596.945995" PMx_abs="80.168803" NOx_abs="1642.538469" fuel_abs="1302439.952140" electricity_abs="0"/>
    </tripinfo>
    <tripinfo id="243" depart="19440.00" departLane="-48211196#4_0" departPos="5.10" departSpeed="0.00" departDelay="0.00" arrival="20173.00" arrivalLane="133755930#1_0" arrivalPos="16.00" arrivalSpeed="9.75" duration="733.00" routeLength="4088.09" waitingTime="284.00" waitingCount="10" stopTime="0.00" timeLoss="359.88" rerouteNo="0" devices="vehroute_243 tripinfo_243 emissions_243" vType="vecType" speedFactor="0.98" vaporized="">
        <emissions CO_abs="64423.197163" CO2_abs="1835255.200198" HC_abs="335.864635" PMx_abs="35.081858" NOx_abs="770.211637" fuel_abs="585381.882034" electricity_abs="0"/>
    </tripinfo>
    <tripinfo id="208" depart="18960.00" departLane="-144346316#5_0" departPos="5.10" departSpeed="0.00" departDelay="0.00" arrival="20176.00" arrivalLane="-144346316#5_0" arrivalPos="145.14" arrivalSpeed="12.40" duration="1216.00" routeLength="13848.79" waitingTime="371.00" waitingCount="15" stopTime="0.00" timeLoss="505.01" rerouteNo="5" devices="vehroute_208 tripinfo_208 emissions_208" vType="vecType" speedFactor="1.13" vaporized="">
        <emissions CO_abs="116668.031844" CO2_abs="4392572.472964" HC_abs="636.649745" PMx_abs="92.982361" NOx_abs="1770.006209" fuel_abs="1401052.103331" electricity_abs="0"/>
    </tripinfo>
    <tripinfo id="105" depart="18183.00" departLane="8915254_0" departPos="5.10" departSpeed="0.00" departDelay="3.00" arrival="20178.00" arrivalLane="8915254_0" arrivalPos="317.12" arrivalSpeed="23.41" duration="1995.00" routeLength="5890.78" waitingTime="245.00" waitingCount="9" stopTime="1244.00" timeLoss="338.43" rerouteNo="2" devices="vehroute_105 tripinfo_105 emissions_105" vType="vecType" speedFactor="1.07" vaporized="">
        <emissions CO_abs="63839.353624" CO2_abs="2248927.365381" HC_abs="342.663308" PMx_abs="43.473578" NOx_abs="929.463675" fuel_abs="717319.778259" electricity_abs="0"/>
    </tripinfo>
    <tripinfo id="16" depart="18006.00" departLane="90077241_0" departPos="5.10" departSpeed="0.00" departDelay="6.00" arrival="20222.00" arrivalLane="90077241_0" arrivalPos="3225.35" arrivalSpeed="24.68" duration="2216.00" routeLength="11625.26" waitingTime="76.00" waitingCount="2" stopTime="1554.00" timeLoss="137.88" rerouteNo="2" devices="vehroute_16 tripinfo_16 emissions_16" vType="vecType" speedFactor="0.88" vaporized="">
        <emissions CO_abs="40635.880574" CO2_abs="2618342.501456" HC_abs="244.307387" PMx_abs="49.967850" NOx_abs="987.341630" fuel_abs="835133.926943" electricity_abs="0"/>
    </tripinfo>
    <tripinfo id="302" depart="19800.00" departLane="-254758139#0_0" departPos="5.10" departSpeed="0.00" departDelay="0.00" arrival="20227.00" arrivalLane="-254758139#0_0" arrivalPos="68.19" arrivalSpeed="11.08" duration="427.00" routeLength="9394.24" waitingTime="40.00" waitingCount="2" stopTime="0.00" timeLoss="74.04" rerouteNo="1" devices="vehroute_302 tripinfo_302 emissions_302" vType="vecType" speedFactor="1.02" vaporized="">
        <emissions CO_abs="35644.591891" CO2_abs="2195357.898282" HC_abs="216.299216" PMx_abs="47.081546" NOx_abs="837.996761" fuel_abs="700218.631264" electricity_abs="0"/>
    </tripinfo>
    <tripinfo id="21" depart="18000.00" departLane="27167762_0" departPos="5.10" departSpeed="0.00" departDelay="0.00" arrival="20245.00" arrivalLane="27167762_0" arrivalPos="139.02" arrivalSpeed="22.22" duration="2245.00" routeLength="5201.43" waitingTime="142.00" waitingCount="6" stopTime="1672.00" timeLoss="226.95" rerouteNo="2" devices="vehroute_21 tripinfo_21 emissions_21" vType="vecType" speedFactor="1.01" vaporized="">
        <emissions CO_abs="47187.545976" CO2_abs="1865288.289432" HC_abs="258.743476" PMx_abs="36.534390" NOx_abs="768.910088" fuel_abs="594950.215522" electricity_abs="0"/>
    </tripinfo>
    <tripinfo id="101" depart="18180.00" departLane="224384035#0_0" departPos="5.10" departSpeed="0.00" departDelay="0.00" arrival="20274.00" arrivalLane="224384035#0_0" arrivalPos="123.84" arrivalSpeed="9.87" duration="2094.00" routeLength="6976.02" waitingTime="257.00" waitingCount="13" stopTime="1077.00" timeLoss="368.59" rerouteNo="2" devices="vehroute_101 tripinfo_101 emissions_101" vType="vecType" speedFactor="0.96" vaporized="">
        <emissions CO_abs="70971.372054" CO2_abs="2458687.251540" HC_abs="379.754799" PMx_abs="42.883390" NOx_abs="1005.023917" fuel_abs="784229.720902" electricity_abs="0"/>
    </tripinfo>
    <tripinfo id="67" depart="18060.00" departLane="-24310636#2_0" departPos="5.10" departSpeed="0.00" departDelay="0.00" arrival="20350.00" arrivalLane="-24310636#2_1" arrivalPos="108.36" arrivalSpeed="9.93" duration="2290.00" routeLength="6581.41" waitingTime="292.00" waitingCount="11" stopTime="1301.00" timeLoss="405.93" rerouteNo="2" devices="vehroute_67 tripinfo_67 emissions_67" vType="vecType" speedFactor="0.91" vaporized="">
        <emissions CO_abs="77486.678793" CO2_abs="2508962.334525" HC_abs="410.792104" PMx_abs="46.446582" NOx_abs="1037.905479" fuel_abs="800266.065230" electricity_abs="0"/>
    </tripinfo>
    <tripinfo id="312" depart="19860.00" departLane="8922307_0" departPos="5.10" departSpeed="0.00" departDelay="0.00" arrival="20352.00" arrivalLane="254756525#26_0" arrivalPos="121.81" arrivalSpeed="11.57" duration="492.00" routeLength="3140.72" waitingTime="181.00" waitingCount="7" stopTime="0.00" timeLoss="233.95" rerouteNo="0" devices="vehroute_312 tripinfo_312 emissions_312" vType="vecType" speedFactor="1.09" vaporized="">
        <emissions CO_abs="42085.216563" CO2_abs="1304706.784593" HC_abs="221.584971" PMx_abs="24.559124" NOx_abs="542.489732" fuel_abs="416153.857811" electricity_abs="0"/>
    </tripinfo>
    <tripinfo id="24" depart="18003.00" departLane="123867455_0" departPos="5.10" departSpeed="0.00" departDelay="3.00" arrival="20390.00" arrivalLane="123867455_0" arrivalPos="904.85" arrivalSpeed="23.94" duration="2387.00" routeLength="6219.34" waitingTime="276.00" waitingCount="12" stopTime="1479.00" timeLoss="390.25" rerouteNo="3" devices="vehroute_24 tripinfo_24 emissions_24" vType="vecType" speedFactor="0.83" vaporized="">
        <emissions CO_abs="77629.053142" CO2_abs="2456855.432365" HC_abs="410.142623" PMx_abs="47.439626" NOx_abs="1012.166841" fuel_abs="783645.865752" electricity_abs="0"/>
    </tripinfo>
    <tripinfo id="322" depart="20040.00" departLane="99231460_0" departPos="5.10" departSpeed="0.00" departDelay="0.00" arrival="20406.00" arrivalLane="-8916792_0" arrivalPos="615.11" arrivalSpeed="13.20" duration="366.00" routeLength="3547.42" waitingTime="59.00" waitingCount="3" stopTime="0.00" timeLoss="106.93" rerouteNo="0" devices="vehroute_322 tripinfo_322 emissions_322" vType="vecType" speedFactor="1.23" vaporized="">
        <emissions CO_abs="20571.389967" CO2_abs="1027563.550746" HC_abs="116.157879" PMx_abs="17.379334" NOx_abs="410.273665" fuel_abs="327749.627783" electricity_abs="0"/>
    </tripinfo>
    <tripinfo id="313" depart="19920.00" departLane="-111089307#4_0" departPos="5.10" departSpeed="0.00" departDelay="0.00" arrival="20414.00" arrivalLane="52432936#0_0" arrivalPos="124.42" arrivalSpeed="10.22" duration="494.00" routeLength="2900.94" waitingTime="169.00" waitingCount="4" stopTime="0.00" timeLoss="213.58" rerouteNo="0" devices="vehroute_313 tripinfo_313 emissions_313" vType="vecType" speedFactor="0.93" vaporized="">
        <emissions CO_abs="40099.395512" CO2_abs="1194630.183741" HC_abs="210.189622" PMx_abs="22.188500" NOx_abs="497.957811" fuel_abs="381044.525573" electricity_abs="0"/>
    </tripinfo>
    <tripinfo id="300" depart="19800.00" departLane="-242896157#0_0" departPos="5.10" departSpeed="0.00" departDelay="0.00" arrival="20449.00" arrivalLane="204967525_0" arrivalPos="146.26" arrivalSpeed="8.77" duration="649.00" routeLength="3515.10" waitingTime="194.00" waitingCount="9" stopTime="0.00" timeLoss="259.12" rerouteNo="0" devices="vehroute_300 tripinfo_300 emissions_300" vType="vecType" speedFactor="0.81" vaporized="">
        <emissions CO_abs="51893.653299" CO2_abs="1489876.079200" HC_abs="270.505591" PMx_abs="27.062331" NOx_abs="619.540696" fuel_abs="475219.153413" electricity_abs="0"/>
    </tripinfo>
    <tripinfo id="159" depart="18540.00" departLane="28805009#5_0" departPos="5.10" departSpeed="0.00" departDelay="0.00" arrival="20460.00" arrivalLane="28805009#5_0" arrivalPos="49.78" arrivalSpeed="9.60" duration="1920.00" routeLength="3704.12" waitingTime="113.00" waitingCount="6" stopTime="1369.00" timeLoss="178.50" rerouteNo="2" devices="vehroute_159 tripinfo_159 emissions_159" vType="vecType" speedFactor="0.89" vaporized="">
        <emissions CO_abs="36788.281269" CO2_abs="1296042.036990" HC_abs="197.310471" PMx_abs="22.325479" NOx_abs="529.941395" fuel_abs="413388.933922" electricity_abs="0"/>
    </tripinfo>
    <tripinfo id="96" depart="18180.00" departLane="90077241_0" departPos="5.10" departSpeed="0.00" departDelay="0.00" arrival="20462.00" arrivalLane="90077241_0" arrivalPos="3225.35" arrivalSpeed="28.13" duration="2282.00" routeLength="14837.07" waitingTime="201.00" waitingCount="8" stopTime="1219.00" timeLoss="299.47" rerouteNo="7" devices="vehroute_96 tripinfo_96 emissions_96" vType="vecType" speedFactor="1.01" vaporized="">
        <emissions CO_abs="80649.574870" CO2_abs="3883526.522524" HC_abs="460.560467" PMx_abs="77.990169" NOx_abs="1517.260775" fuel_abs="1238679.145185" electricity_abs="0"/>
    </tripinfo>
    <tripinfo id="17" depart="18003.00" departLane="224384035#0_0" departPos="5.10" departSpeed="0.00" departDelay="3.00" arrival="20503.00" arrivalLane="224384035#0_0" arrivalPos="123.84" arrivalSpeed="10.31" duration="2500.00" routeLength="7142.89" waitingTime="297.00" waitingCount="14" stopTime="1398.00" timeLoss="428.70" rerouteNo="2" devices="vehroute_17 tripinfo_17 emissions_17" vType="vecType" speedFactor="0.94" vaporized="">
        <emissions CO_abs="81039.730686" CO2_abs="2654722.627589" HC_abs="430.120985" PMx_abs="47.225240" NOx_abs="1092.181965" fuel_abs="846759.371476" electricity_abs="0"/>
    </tripinfo>
    <tripinfo id="318" depart="19980.00" departLane="-88572970_0" departPos="5.10" departSpeed="0.00" departDelay="0.00" arrival="20531.00" arrivalLane="-88572970_1" arrivalPos="108.68" arrivalSpeed="11.25" duration="551.00" routeLength="9249.43" waitingTime="80.00" waitingCount="5" stopTime="0.00" timeLoss="135.33" rerouteNo="1" devices="vehroute_318 tripinfo_318 emissions_318" vType="vecType" speedFactor="1.03" vaporized="">
        <emissions CO_abs="44115.408670" CO2_abs="2305920.087031" HC_abs="256.848774" PMx_abs="48.107946" NOx_abs="894.963684" fuel_abs="735486.924915" electricity_abs="0"/>
    </tripinfo>
    <tripinfo id="38" depart="18006.00" departLane="142972028#1_0" departPos="5.10" departSpeed="0.00" departDelay="6.00" arrival="20568.00" arrivalLane="142972028#1_0" arrivalPos="161.20" arrivalSpeed="11.70" duration="2562.00" routeLength="7015.31" waitingTime="443.00" waitingCount="12" stopTime="1394.00" timeLoss="568.44" rerouteNo="3" devices="vehroute_38 tripinfo_38 emissions_38" vType="vecType" speedFactor="1.10" vaporized="">
        <emissions CO_abs="101031.405639" CO2_abs="2961633.423813" HC_abs="528.080873" PMx_abs="56.588716" NOx_abs="1236.886929" fuel_abs="944655.484944" electricity_abs="0"/>
    </tripinfo>
    <tripinfo id="22" depart="18000.00" departLane="27398045#1_0" departPos="5.10" departSpeed="0.00" departDelay="0.00" arrival="20645.00" arrivalLane="27398045#1_0" arrivalPos="122.17" arrivalSpeed="10.00" duration="2645.00" routeLength="6484.53" waitingTime="253.00" waitingCount="9" stopTime="1702.00" timeLoss="350.23" rerouteNo="3" devices="vehroute_22 tripinfo_22 emissions_22" vType="vecType" speedFactor="0.97" vaporized="">
        <emissions CO_abs="67099.465853" CO2_abs="2314014.320842" HC_abs="358.823988" PMx_abs="40.497902" NOx_abs="945.806687" fuel_abs="738084.576696" electricity_abs="0"/>
    </tripinfo>
    <tripinfo id="311" depart="19860.00" departLane="204884387#0_0" departPos="5.10" departSpeed="0.00" departDelay="0.00" arrival="20665.00" arrivalLane="204884387#0_0" arrivalPos="132.79" arrivalSpeed="8.73" duration="805.00" routeLength="10123.88" waitingTime="171.00" waitingCount="5" stopTime="0.00" timeLoss="243.26" rerouteNo="1" devices="vehroute_311 tripinfo_311 emissions_311" vType="vecType" speedFactor="0.90" vaporized="">
        <emissions CO_abs="56332.912353" CO2_abs="2639926.018373" HC_abs="317.785066" PMx_abs="50.588409" NOx_abs="1031.083010" fuel_abs="842025.770199" electricity_abs="0"/>
    </tripinfo>
    <tripinfo id="179" depart="18600.00" departLane="-254758120#3_0" departPos="5.10" departSpeed="0.00" departDelay="0.00" arrival="20668.00" arrivalLane="-254758120#3_0" arrivalPos="147.41" arrivalSpeed="10.50" duration="2068.00" routeLength="4493.54" waitingTime="208.00" waitingCount="9" stopTime="1376.00" timeLoss="284.66" rerouteNo="2" devices="vehroute_179 tripinfo_179 emissions_179" vType="vecType" speedFactor="0.99" vaporized="">
        <emissions CO_abs="52698.724038" CO2_abs="1684286.705018" HC_abs="278.846358" PMx_abs="30.465311" NOx_abs="694.754697" fuel_abs="537226.210159" electricity_abs="0"/>
    </tripinfo>
    <tripinfo id="187" depart="18660.00" departLane="-24335483#9_0" departPos="5.10" departSpeed="0.00" departDelay="0.00" arrival="20671.00" arrivalLane="-24335483#9_0" arrivalPos="292.66" arrivalSpeed="12.51" duration="2011.00" routeLength="4210.80" waitingTime="75.00" waitingCount="2" stopTime="1554.00" timeLoss="129.18" rerouteNo="3" devices="vehroute_187 tripinfo_187 emissions_187" vType="vecType" speedFactor="1.15" vaporized="">
        <emissions CO_abs="25682.444877" CO2_abs="1241616.751122" HC_abs="144.830926" PMx_abs="21.059204" NOx_abs="498.398565" fuel_abs="396024.074623" electricity_abs="0"/>
    </tripinfo>
    <tripinfo id="103" depart="18183.00" departLane="224384035#0_0" departPos="5.10" departSpeed="0.00" departDelay="3.00" arrival="20692.00" arrivalLane="224384035#0_0" arrivalPos="123.84" arrivalSpeed="10.32" duration="2509.00" routeLength="7312.48" waitingTime="514.00" waitingCount="19" stopTime="1158.00" timeLoss="667.79" rerouteNo="3" devices="vehroute_103 tripinfo_103 emissions_103" vType="vecType" speedFactor="0.95" vaporized="">
        <emissions CO_abs="120132.575391" CO2_abs="3374813.787083" HC_abs="625.110447" PMx_abs="64.673485" NOx_abs="1418.681953" fuel_abs="1076447.694196" electricity_abs="0"/>
    </tripinfo>
    <tripinfo id="326" depart="20100.00" departLane="88466052#1_0" departPos="5.10" departSpeed="0.00" departDelay="0.00" arrival="20720.00" arrivalLane="88466052#1_0" arrivalPos="202.96" arrivalSpeed="11.61" duration="620.00" routeLength="9458.72" waitingTime="147.00" waitingCount="7" stopTime="0.00" timeLoss="208.40" rerouteNo="1" devices="vehroute_326 tripinfo_326 emissions_326" vType="vecType" speedFactor="1.09" vaporized="">
        <emissions CO_abs="59833.576985" CO2_abs="2613235.925720" HC_abs="336.582906" PMx_abs="56.821631" NOx_abs="1032.110590" fuel_abs="833510.627648" electricity_abs="0"/>
    </tripinfo>
    <tripinfo id="238" depart="19380.00" departLane="8919058_0" departPos="5.10" departSpeed="0.00" departDelay="0.00" arrival="20735.00" arrivalLane="8919058_0" arrivalPos="100.83" arrivalSpeed="11.43" duration="1355.00" routeLength="2800.33" waitingTime="79.00" waitingCount="4" stopTime="1006.00" timeLoss="129.81" rerouteNo="5" devices="vehroute_238 tripinfo_238 emissions_238" vType="vecType" speedFactor="1.14" vaporized="">
        <emissions CO_abs="24237.353435" CO2_abs="960814.965576" HC_abs="132.198526" PMx_abs="17.359566" NOx_abs="394.133734" fuel_abs="306461.443910" electricity_abs="0"/>
    </tripinfo>
    <tripinfo id="106" depart="18180.00" departLane="-206679802#4_0" departPos="5.10" departSpeed="0.00" departDelay="0.00" arrival="20812.00" arrivalLane="-206679802#4_0" arrivalPos="292.11" arrivalSpeed="10.44" duration="2632.00" routeLength="8674.86" waitingTime="347.00" waitingCount="15" stopTime="1372.00" timeLoss="496.56" rerouteNo="2" devices="vehroute_106 tripinfo_106 emissions_106" vType="vecType" speedFactor="1.01" vaporized="">
        <emissions CO_abs="92769.858395" CO2_abs="3179162.424608" HC_abs="495.954668" PMx_abs="57.553215" NOx_abs="1311.472331" fuel_abs="1014032.912358" electricity_abs="0"/>
    </tripinfo>
    <tripinfo id="142" depart="18480.00" departLane="-27029204_0" departPos="5.10" departSpeed="0.00" departDelay="0.00" arrival="20841.00" arrivalLane="-27029204_0" arrivalPos="195.60" arrivalSpeed="11.72" duration="2361.00" routeLength="6965.07" waitingTime="138.00" waitingCount="8" stopTime="1589.00" timeLoss="238.11" rerouteNo="3" devices="vehroute_142 tripinfo_142 emissions_142" vType="vecType" speedFactor="1.06" vaporized="">
        <emissions CO_abs="48085.779444" CO2_abs="2162040.617200" HC_abs="268.642694" PMx_abs="37.638112" NOx_abs="869.933960" fuel_abs="689602.383363" electricity_abs="0"/>
    </tripinfo>
    <tripinfo id="264" depart="19500.00" departLane="288065247#6_0" departPos="5.10" departSpeed="0.00" departDelay="0.00" arrival="20854.00" arrivalLane="288065247#6_0" arrivalPos="102.86" arrivalSpeed="12.12" duration="1354.00" routeLength="2273.51" waitingTime="1.00" waitingCount="1" stopTime="1144.00" timeLoss="31.46" rerouteNo="2" devices="vehroute_264 tripinfo_264 emissions_264" vType="vecType" speedFactor="1.14" vaporized="">
        <emissions CO_abs="8032.021863" CO2_abs="600467.931765" HC_abs="50.129201" PMx_abs="9.515123" NOx_abs="236.986920" fuel_abs="191522.240858" electricity_abs="0"/>
    </tripinfo>
    <tripinfo id="89" depart="18126.00" departLane="31129765_0" departPos="5.10" departSpeed="0.00" departDelay="6.00" arrival="20875.00" arrivalLane="31129765_0" arrivalPos="639.51" arrivalSpeed="21.64" duration="2749.00" routeLength="8014.77" waitingTime="230.00" waitingCount="8" stopTime="1904.00" timeLoss="322.89" rerouteNo="2" devices="vehroute_89 tripinfo_89 emissions_89" vType="vecType" speedFactor="1.02" vaporized="">
        <emissions CO_abs="66231.600236" CO2_abs="2585539.689769" HC_abs="362.202226" PMx_abs="50.072492" NOx_abs="1051.356639" fuel_abs="824682.657163" electricity_abs="0"/>
    </tripinfo>
    <tripinfo id="185" depart="18600.00" departLane="90077241_0" departPos="5.10" departSpeed="0.00" departDelay="0.00" arrival="20895.00" arrivalLane="90077241_0" arrivalPos="3225.35" arrivalSpeed="30.12" duration="2295.00" routeLength="13070.62" waitingTime="222.00" waitingCount="7" stopTime="1422.00" timeLoss="301.73" rerouteNo="2" devices="vehroute_185 tripinfo_185 emissions_185" vType="vecType" speedFactor="1.07" vaporized="">
        <emissions CO_abs="85162.273096" CO2_abs="3686101.499375" HC_abs="478.082649" PMx_abs="80.282329" NOx_abs="1455.567870" fuel_abs="1175709.381619" electricity_abs="0"/>
    </tripinfo>
    <tripinfo id="250" depart="19443.00" departLane="-24335483#9_0" departPos="5.10" departSpeed="0.00" departDelay="3.00" arrival="20910.00" arrivalLane="-24335483#9_0" arrivalPos="292.66" arrivalSpeed="10.06" duration="1467.00" routeLength="14375.42" waitingTime="391.00" waitingCount="15" stopTime="0.00" timeLoss="536.34" rerouteNo="4" devices="vehroute_250 tripinfo_250 emissions_250" vType="vecType" speedFactor="0.95" vaporized="">
        <emissions CO_abs="113563.708154" CO2_abs="4391884.485848" HC_abs="619.971675" PMx_abs="84.341104" NOx_abs="1758.910635" fuel_abs="1400836.815558" electricity_abs="0"/>
    </tripinfo>
    <tripinfo id="56" depart="18066.00" departLane="31129765_0" departPos="5.10" departSpeed="0.00" departDelay="6.00" arrival="20918.00" arrivalLane="31129765_0" arrivalPos="639.51" arrivalSpeed="18.81" duration="2852.00" routeLength="6622.27" waitingTime="220.00" waitingCount="6" stopTime="2107.00" timeLoss="290.38" rerouteNo="2" devices="vehroute_56 tripinfo_56 emissions_56" vType="vecType" speedFactor="0.90" vaporized="">
        <emissions CO_abs="59094.007015" CO2_abs="2199694.263855" HC_abs="319.492129" PMx_abs="41.747280" NOx_abs="891.911700" fuel_abs="701615.776208" electricity_abs="0"/>
    </tripinfo>
    <tripinfo id="61" depart="18060.00" departLane="8916767#0_0" departPos="5.10" departSpeed="0.00" departDelay="0.00" arrival="20979.00" arrivalLane="8916767#0_0" arrivalPos="129.66" arrivalSpeed="12.22" duration="2919.00" routeLength="9681.91" waitingTime="553.00" waitingCount="20" stopTime="1423.00" timeLoss="721.95" rerouteNo="2" devices="vehroute_61 tripinfo_61 emissions_61" vType="vecType" speedFactor="1.12" vaporized="">
        <emissions CO_abs="126713.149207" CO2_abs="3937214.662092" HC_abs="666.891821" PMx_abs="74.049024" NOx_abs="1634.489849" fuel_abs="1255827.783837" electricity_abs="0"/>
    </tripinfo>
    <tripinfo id="332" depart="20400.00" departLane="-242896157#0_0" departPos="5.10" departSpeed="0.00" departDelay="0.00" arrival="20984.00" arrivalLane="-242896157#0_1" arrivalPos="109.29" arrivalSpeed="8.86" duration="584.00" routeLength="8698.52" waitingTime="104.00" waitingCount="4" stopTime="0.00" timeLoss="146.97" rerouteNo="1" devices="vehroute_332 tripinfo_332 emissions_332" vType="vecType" speedFactor="0.87" vaporized="">
        <emissions CO_abs="37754.648787" CO2_abs="2045481.625877" HC_abs="218.932291" PMx_abs="38.811035" NOx_abs="785.360819" fuel_abs="652420.171220" electricity_abs="0"/>
    </tripinfo>
    <tripinfo id="115" depart="18240.00" departLane="90077241_0" departPos="5.10" departSpeed="0.00" departDelay="0.00" arrival="21053.00" arrivalLane="90077241_0" arrivalPos="3225.35" arrivalSpeed="23.51" duration="2813.00" routeLength="13066.86" waitingTime="155.00" waitingCount="6" stopTime="1826.00" timeLoss="238.04" rerouteNo="2" devices="vehroute_115 tripinfo_115 emissions_115" vType="vecType" speedFactor="0.82" vaporized="">
        <emissions CO_abs="59150.454570" CO2_abs="3129565.548050" HC_abs="340.354270" PMx_abs="57.040283" NOx_abs="1205.994441" fuel_abs="998198.101746" electricity_abs="0"/>
    </tripinfo>
    <tripinfo id="226" depart="19020.00" departLane="31129765_0" departPos="5.10" departSpeed="0.00" departDelay="0.00" arrival="21077.00" arrivalLane="31129765_0" arrivalPos="639.51" arrivalSpeed="18.96" duration="2057.00" routeLength="7821.53" waitingTime="237.00" waitingCount="10" stopTime="1138.00" timeLoss="327.63" rerouteNo="5" devices="vehroute_226 tripinfo_226 emissions_226" vType="vecType" speedFactor="0.87" vaporized="">
        <emissions CO_abs="67182.835003" CO2_abs="2531806.047687" HC_abs="363.347944" PMx_abs="46.158653" NOx_abs="1020.786114" fuel_abs="807547.465361" electricity_abs="0"/>
    </tripinfo>
    <tripinfo id="147" depart="18480.00" departLane="23959829#0_0" departPos="5.10" departSpeed="0.00" departDelay="0.00" arrival="21119.00" arrivalLane="23959829#0_1" arrivalPos="45.86" arrivalSpeed="10.09" duration="2639.00" routeLength="6293.46" waitingTime="358.00" waitingCount="13" stopTime="1603.00" timeLoss="457.48" rerouteNo="2" devices="vehroute_147 tripinfo_147 emissions_147" vType="vecType" speedFactor="0.97" vaporized="">