<?xml version="1.0" encoding="UTF-8"?>

<!-- generated on 2022-12-09 18:01:08 by Eclipse SUMO sumo Version 1.14.1
<configuration xmlns:xsi="http://www.w3.org/2001/XMLSchema-instance" xsi:noNamespaceSchemaLocation="http://sumo.dlr.de/xsd/sumoConfiguration.xsd">

    <input>
        <net-file value="./strategia1_config/../san_francisco.net.xml"/>
        <route-files value="./strategia1_config/../san_francisco.rou.xml"/>
        <additional-files value="./strategia1_config/../san_francisco.poly.xml,./strategia1_config/../parking_capacity_75%25/off_parking_75%25.add.xml,./strategia1_config/../parking_capacity_75%25/on_parking_75%25.add.xml"/>
    </input>

    <output>
        <emission-output value="./strategia1_config/../output/strategia1/75%25/emission.xml"/>
        <summary-output value="./strategia1_config/../output/strategia1/75%25/summary.xml"/>
        <tripinfo-output value="./strategia1_config/../output/strategia1/75%25/tripinfo.xml"/>
        <vehroute-output value="./strategia1_config/../output/strategia1/75%25/vehroute.xml"/>
        <stop-output value="./strategia1_config/../output/strategia1/75%25/stops.xml"/>
        <collision-output value="./strategia1_config/../output/strategia1/75%25/collision.xml"/>
        <statistic-output value="./strategia1_config/../output/strategia1/75%25/statistic.xml"/>
    </output>

    <time>
        <step-length value="1"/>
    </time>

    <processing>
        <ignore-route-errors value="false"/>
        <time-to-teleport value="-1"/>
    </processing>

    <report>
        <verbose value="true"/>
        <xml-validation value="never"/>
    </report>

    <traci_server>
        <remote-port value="53233"/>
    </traci_server>

    <gui_only>
        <gui-settings-file value="./strategia1_config/../gui-settings.cfg"/>
        <start value="true"/>
    </gui_only>

</configuration>
-->

<tripinfos xmlns:xsi="http://www.w3.org/2001/XMLSchema-instance" xsi:noNamespaceSchemaLocation="http://sumo.dlr.de/xsd/tripinfo_file.xsd">
    <tripinfo id="30" depart="18000.00" departLane="-91181760#0_0" departPos="5.10" departSpeed="0.00" departDelay="0.00" arrival="18343.00" arrivalLane="-91181760#0_0" arrivalPos="79.70" arrivalSpeed="12.72" duration="343.00" routeLength="3660.42" waitingTime="1.00" waitingCount="1" stopTime="20.00" timeLoss="44.48" rerouteNo="1" devices="vehroute_30 tripinfo_30 emissions_30" vType="vecType" speedFactor="1.18" vaporized="">
        <emissions CO_abs="12374.523815" CO2_abs="962973.938443" HC_abs="77.932900" PMx_abs="15.477382" NOx_abs="380.566320" fuel_abs="307144.777999" electricity_abs="0"/>
    </tripinfo>
    <tripinfo id="1" depart="18000.00" departLane="31129765_0" departPos="5.10" departSpeed="0.00" departDelay="0.00" arrival="18355.00" arrivalLane="31129765_0" arrivalPos="639.51" arrivalSpeed="20.02" duration="355.00" routeLength="4341.32" waitingTime="21.00" waitingCount="2" stopTime="20.00" timeLoss="66.69" rerouteNo="1" devices="vehroute_1 tripinfo_1 emissions_1" vType="vecType" speedFactor="0.94" vaporized="">
        <emissions CO_abs="18474.048443" CO2_abs="1156538.453565" HC_abs="110.405747" PMx_abs="20.926406" NOx_abs="455.443377" fuel_abs="368883.741251" electricity_abs="0"/>
    </tripinfo>
    <tripinfo id="45" depart="18060.00" departLane="31129765_0" departPos="5.10" departSpeed="0.00" departDelay="0.00" arrival="18384.00" arrivalLane="31129765_0" arrivalPos="639.51" arrivalSpeed="23.54" duration="324.00" routeLength="4234.28" waitingTime="40.00" waitingCount="1" stopTime="20.00" timeLoss="80.84" rerouteNo="1" devices="vehroute_45 tripinfo_45 emissions_45" vType="vecType" speedFactor="1.09" vaporized="">
        <emissions CO_abs="23080.392157" CO2_abs="1279206.733358" HC_abs="135.121566" PMx_abs="25.635430" NOx_abs="516.644599" fuel_abs="408008.668806" electricity_abs="0"/>
    </tripinfo>
    <tripinfo id="60" depart="18060.00" departLane="8916792_0" departPos="5.10" departSpeed="0.00" departDelay="0.00" arrival="18488.00" arrivalLane="8916792_0" arrivalPos="615.11" arrivalSpeed="11.46" duration="428.00" routeLength="3743.73" waitingTime="53.00" waitingCount="3" stopTime="20.00" timeLoss="98.35" rerouteNo="1" devices="vehroute_60 tripinfo_60 emissions_60" vType="vecType" speedFactor="1.08" vaporized="">
        <emissions CO_abs="19650.462045" CO2_abs="978426.142295" HC_abs="111.588718" PMx_abs="15.122056" NOx_abs="383.445914" fuel_abs="312078.569713" electricity_abs="0"/>
    </tripinfo>
    <tripinfo id="76" depart="18120.00" departLane="225806031#0_0" departPos="5.10" departSpeed="0.00" departDelay="0.00" arrival="18576.00" arrivalLane="225806031#0_0" arrivalPos="142.16" arrivalSpeed="10.39" duration="456.00" routeLength="3181.76" waitingTime="111.00" waitingCount="5" stopTime="20.00" timeLoss="161.69" rerouteNo="1" devices="vehroute_76 tripinfo_76 emissions_76" vType="vecType" speedFactor="1.03" vaporized="">
        <emissions CO_abs="31058.549960" CO2_abs="1128524.344332" HC_abs="167.421479" PMx_abs="20.139294" NOx_abs="462.731315" fuel_abs="359955.908693" electricity_abs="0"/>
    </tripinfo>
    <tripinfo id="28" depart="18009.00" departLane="90077241_0" departPos="5.10" departSpeed="0.00" departDelay="9.00" arrival="18595.00" arrivalLane="90077241_0" arrivalPos="3225.35" arrivalSpeed="32.13" duration="586.00" routeLength="11976.91" waitingTime="67.00" waitingCount="3" stopTime="20.00" timeLoss="132.32" rerouteNo="2" devices="vehroute_28 tripinfo_28 emissions_28" vType="vecType" speedFactor="1.13" vaporized="">
        <emissions CO_abs="61634.870690" CO2_abs="3134977.335828" HC_abs="359.214648" PMx_abs="72.158333" NOx_abs="1229.796419" fuel_abs="999915.565551" electricity_abs="0"/>
    </tripinfo>
    <tripinfo id="74" depart="18120.00" departLane="144489137#0_0" departPos="5.10" departSpeed="0.00" departDelay="0.00" arrival="18630.00" arrivalLane="144489137#0_0" arrivalPos="135.49" arrivalSpeed="10.22" duration="510.00" routeLength="2773.20" waitingTime="174.00" waitingCount="8" stopTime="20.00" timeLoss="235.40" rerouteNo="4" devices="vehroute_74 tripinfo_74 emissions_74" vType="vecType" speedFactor="0.96" vaporized="">
        <emissions CO_abs="42890.559832" CO2_abs="1244223.065167" HC_abs="224.094731" PMx_abs="24.009546" NOx_abs="524.063037" fuel_abs="396862.606431" electricity_abs="0"/>
    </tripinfo>
    <tripinfo id="49" depart="18063.00" departLane="31129765_0" departPos="5.10" departSpeed="0.00" departDelay="3.00" arrival="18662.00" arrivalLane="31129765_0" arrivalPos="639.51" arrivalSpeed="18.99" duration="599.00" routeLength="12944.78" waitingTime="0.00" waitingCount="0" stopTime="20.00" timeLoss="33.15" rerouteNo="1" devices="vehroute_49 tripinfo_49 emissions_49" vType="vecType" speedFactor="0.85" vaporized="">
        <emissions CO_abs="23147.146148" CO2_abs="2476972.114481" HC_abs="160.400732" PMx_abs="44.826185" NOx_abs="896.451177" fuel_abs="790037.373465" electricity_abs="0"/>
    </tripinfo>
    <tripinfo id="93" depart="18120.00" departLane="-254758121#2_0" departPos="5.10" departSpeed="0.00" departDelay="0.00" arrival="18663.00" arrivalLane="-254758121#2_0" arrivalPos="99.35" arrivalSpeed="9.32" duration="543.00" routeLength="3841.81" waitingTime="89.00" waitingCount="3" stopTime="20.00" timeLoss="149.99" rerouteNo="3" devices="vehroute_93 tripinfo_93 emissions_93" vType="vecType" speedFactor="0.92" vaporized="">
        <emissions CO_abs="31787.776088" CO2_abs="1251766.021633" HC_abs="173.566250" PMx_abs="21.160881" NOx_abs="508.724133" fuel_abs="399264.662602" electricity_abs="0"/>
    </tripinfo>
    <tripinfo id="16" depart="18006.00" departLane="90077241_0" departPos="5.10" departSpeed="0.00" departDelay="6.00" arrival="18688.00" arrivalLane="90077241_0" arrivalPos="3225.35" arrivalSpeed="24.93" duration="682.00" routeLength="11625.26" waitingTime="80.00" waitingCount="2" stopTime="20.00" timeLoss="138.17" rerouteNo="1" devices="vehroute_16 tripinfo_16 emissions_16" vType="vecType" speedFactor="0.88" vaporized="">
        <emissions CO_abs="41316.260517" CO2_abs="2640632.425314" HC_abs="248.132585" PMx_abs="50.535237" NOx_abs="997.696320" fuel_abs="842243.528042" electricity_abs="0"/>
    </tripinfo>
    <tripinfo id="47" depart="18060.00" departLane="90077241_0" departPos="5.10" departSpeed="0.00" departDelay="0.00" arrival="18688.00" arrivalLane="90077241_1" arrivalPos="3225.35" arrivalSpeed="25.51" duration="628.00" routeLength="11784.85" waitingTime="4.00" waitingCount="1" stopTime="20.00" timeLoss="51.47" rerouteNo="5" devices="vehroute_47 tripinfo_47 emissions_47" vType="vecType" speedFactor="0.90" vaporized="">
        <emissions CO_abs="29067.422904" CO2_abs="2437575.455511" HC_abs="188.812424" PMx_abs="45.681895" NOx_abs="906.812284" fuel_abs="777473.728914" electricity_abs="0"/>
    </tripinfo>
    <tripinfo id="36" depart="18009.00" departLane="123867455_0" departPos="5.10" departSpeed="0.00" departDelay="9.00" arrival="18703.00" arrivalLane="123867455_0" arrivalPos="904.85" arrivalSpeed="28.23" duration="694.00" routeLength="5347.03" waitingTime="258.00" waitingCount="8" stopTime="20.00" timeLoss="341.21" rerouteNo="2" devices="vehroute_36 tripinfo_36 emissions_36" vType="vecType" speedFactor="0.97" vaporized="">
        <emissions CO_abs="66030.794660" CO2_abs="2130726.260805" HC_abs="350.955965" PMx_abs="43.881370" NOx_abs="885.880068" fuel_abs="679619.757313" electricity_abs="0"/>
    </tripinfo>
    <tripinfo id="21" depart="18000.00" departLane="27167762_0" departPos="5.10" departSpeed="0.00" departDelay="0.00" arrival="18712.00" arrivalLane="27167762_0" arrivalPos="139.02" arrivalSpeed="21.52" duration="712.00" routeLength="12026.47" waitingTime="115.00" waitingCount="6" stopTime="0.00" timeLoss="177.50" rerouteNo="4" devices="vehroute_21 tripinfo_21 emissions_21" vType="vecType" speedFactor="1.01" vaporized="">
        <emissions CO_abs="57160.735024" CO2_abs="3024016.697369" HC_abs="333.802861" PMx_abs="62.795121" NOx_abs="1171.506374" fuel_abs="964528.114741" electricity_abs="0"/>
    </tripinfo>
    <tripinfo id="31" depart="18006.00" departLane="123867455_0" departPos="5.10" departSpeed="0.00" departDelay="6.00" arrival="18724.00" arrivalLane="123867455_0" arrivalPos="904.85" arrivalSpeed="32.76" duration="718.00" routeLength="7632.90" waitingTime="132.00" waitingCount="7" stopTime="20.00" timeLoss="234.03" rerouteNo="1" devices="vehroute_31 tripinfo_31 emissions_31" vType="vecType" speedFactor="1.15" vaporized="">
        <emissions CO_abs="50303.627476" CO2_abs="2353615.229602" HC_abs="283.624920" PMx_abs="44.877770" NOx_abs="949.478534" fuel_abs="750702.770402" electricity_abs="0"/>
    </tripinfo>
    <tripinfo id="15" depart="18000.00" departLane="-24310636#2_0" departPos="5.10" departSpeed="0.00" departDelay="0.00" arrival="18755.00" arrivalLane="-24310636#2_1" arrivalPos="108.36" arrivalSpeed="10.25" duration="755.00" routeLength="6010.81" waitingTime="130.00" waitingCount="6" stopTime="20.00" timeLoss="214.12" rerouteNo="1" devices="vehroute_15 tripinfo_15 emissions_15" vType="vecType" speedFactor="0.93" vaporized="">
        <emissions CO_abs="45389.798975" CO2_abs="1842783.830513" HC_abs="249.034420" PMx_abs="31.811601" NOx_abs="744.489085" fuel_abs="587775.258533" electricity_abs="0"/>
    </tripinfo>
    <tripinfo id="20" depart="18000.00" departLane="123867455_0" departPos="5.10" departSpeed="0.00" departDelay="0.00" arrival="18759.00" arrivalLane="123867455_0" arrivalPos="904.85" arrivalSpeed="28.87" duration="759.00" routeLength="6719.97" waitingTime="213.00" waitingCount="7" stopTime="20.00" timeLoss="292.84" rerouteNo="3" devices="vehroute_20 tripinfo_20 emissions_20" vType="vecType" speedFactor="1.02" vaporized="">
        <emissions CO_abs="60354.873451" CO2_abs="2310452.560794" HC_abs="328.870099" PMx_abs="44.526620" NOx_abs="939.817934" fuel_abs="736941.894386" electricity_abs="0"/>
    </tripinfo>
    <tripinfo id="39" depart="18006.00" departLane="31129765_0" departPos="5.10" departSpeed="0.00" departDelay="6.00" arrival="18766.00" arrivalLane="31129765_0" arrivalPos="639.51" arrivalSpeed="19.93" duration="760.00" routeLength="6254.53" waitingTime="249.00" waitingCount="8" stopTime="20.00" timeLoss="323.53" rerouteNo="3" devices="vehroute_39 tripinfo_39 emissions_39" vType="vecType" speedFactor="0.90" vaporized="">
        <emissions CO_abs="63594.279086" CO2_abs="2202893.281139" HC_abs="339.891358" PMx_abs="42.741697" NOx_abs="898.929787" fuel_abs="702637.838371" electricity_abs="0"/>
    </tripinfo>
    <tripinfo id="33" depart="18000.00" departLane="144489137#0_0" departPos="5.10" departSpeed="0.00" departDelay="0.00" arrival="18781.00" arrivalLane="144489137#0_0" arrivalPos="135.49" arrivalSpeed="13.08" duration="781.00" routeLength="3872.00" waitingTime="372.00" waitingCount="14" stopTime="20.00" timeLoss="467.41" rerouteNo="1" devices="vehroute_33 tripinfo_33 emissions_33" vType="vecType" speedFactor="1.17" vaporized="">
        <emissions CO_abs="79146.548580" CO2_abs="2104557.506188" HC_abs="408.287982" PMx_abs="42.952560" NOx_abs="896.106273" fuel_abs="671280.281090" electricity_abs="0"/>
    </tripinfo>
    <tripinfo id="82" depart="18123.00" departLane="-133781749_0" departPos="5.10" departSpeed="0.00" departDelay="3.00" arrival="18784.00" arrivalLane="-133781749_0" arrivalPos="138.68" arrivalSpeed="10.86" duration="661.00" routeLength="5499.56" waitingTime="104.00" waitingCount="9" stopTime="20.00" timeLoss="211.46" rerouteNo="1" devices="vehroute_82 tripinfo_82 emissions_82" vType="vecType" speedFactor="1.02" vaporized="">
        <emissions CO_abs="42412.097303" CO2_abs="1795068.182690" HC_abs="234.732304" PMx_abs="32.006941" NOx_abs="728.962637" fuel_abs="572553.829771" electricity_abs="0"/>
    </tripinfo>
    <tripinfo id="68" depart="18060.00" departLane="27167762_0" departPos="5.10" departSpeed="0.00" departDelay="0.00" arrival="18787.00" arrivalLane="27167762_0" arrivalPos="139.02" arrivalSpeed="22.31" duration="727.00" routeLength="12191.33" waitingTime="122.00" waitingCount="5" stopTime="0.00" timeLoss="193.50" rerouteNo="5" devices="vehroute_68 tripinfo_68 emissions_68" vType="vecType" speedFactor="1.04" vaporized="">
        <emissions CO_abs="62936.906704" CO2_abs="3155948.868661" HC_abs="363.807132" PMx_abs="67.263698" NOx_abs="1240.182710" fuel_abs="1006608.311869" electricity_abs="0"/>
    </tripinfo>
    <tripinfo id="27" depart="18000.00" departLane="-8916048_0" departPos="5.10" departSpeed="0.00" departDelay="0.00" arrival="18799.00" arrivalLane="-8916048_0" arrivalPos="126.72" arrivalSpeed="10.34" duration="799.00" routeLength="6742.86" waitingTime="109.00" waitingCount="5" stopTime="20.00" timeLoss="200.94" rerouteNo="1" devices="vehroute_27 tripinfo_27 emissions_27" vType="vecType" speedFactor="0.95" vaporized="">
        <emissions CO_abs="43278.101058" CO2_abs="1966627.158739" HC_abs="242.186249" PMx_abs="32.518042" NOx_abs="785.400148" fuel_abs="627274.783499" electricity_abs="0"/>
    </tripinfo>
    <tripinfo id="13" depart="18003.00" departLane="90077241_0" departPos="5.10" departSpeed="0.00" departDelay="3.00" arrival="18835.00" arrivalLane="90077241_0" arrivalPos="3225.35" arrivalSpeed="32.25" duration="832.00" routeLength="12752.38" waitingTime="213.00" waitingCount="7" stopTime="20.00" timeLoss="292.72" rerouteNo="1" devices="vehroute_13 tripinfo_13 emissions_13" vType="vecType" speedFactor="1.12" vaporized="">
        <emissions CO_abs="88291.246483" CO2_abs="3702796.085042" HC_abs="493.344519" PMx_abs="83.487136" NOx_abs="1476.180999" fuel_abs="1181033.109052" electricity_abs="0"/>
    </tripinfo>
    <tripinfo id="63" depart="18063.00" departLane="-204967525_0" departPos="5.10" departSpeed="0.00" departDelay="3.00" arrival="18839.00" arrivalLane="-204967525_1" arrivalPos="146.26" arrivalSpeed="10.26" duration="776.00" routeLength="4830.14" waitingTime="217.00" waitingCount="10" stopTime="20.00" timeLoss="317.58" rerouteNo="1" devices="vehroute_63 tripinfo_63 emissions_63" vType="vecType" speedFactor="0.99" vaporized="">
        <emissions CO_abs="57153.689172" CO2_abs="1835866.678358" HC_abs="302.616446" PMx_abs="33.107414" NOx_abs="757.402415" fuel_abs="585574.562128" electricity_abs="0"/>
    </tripinfo>
    <tripinfo id="84" depart="18123.00" departLane="90077241_0" departPos="5.10" departSpeed="0.00" departDelay="3.00" arrival="18849.00" arrivalLane="90077241_0" arrivalPos="3225.35" arrivalSpeed="32.66" duration="726.00" routeLength="12280.95" waitingTime="166.00" waitingCount="5" stopTime="20.00" timeLoss="230.49" rerouteNo="1" devices="vehroute_84 tripinfo_84 emissions_84" vType="vecType" speedFactor="1.15" vaporized="">
        <emissions CO_abs="80157.149577" CO2_abs="3457568.627520" HC_abs="450.604093" PMx_abs="79.546693" NOx_abs="1369.031760" fuel_abs="1102814.278968" electricity_abs="0"/>
    </tripinfo>
    <tripinfo id="2" depart="18000.00" departLane="142972028#1_0" departPos="5.10" departSpeed="0.00" departDelay="0.00" arrival="18859.00" arrivalLane="142972028#1_0" arrivalPos="161.20" arrivalSpeed="11.07" duration="859.00" routeLength="6951.71" waitingTime="175.00" waitingCount="10" stopTime="20.00" timeLoss="281.59" rerouteNo="2" devices="vehroute_2 tripinfo_2 emissions_2" vType="vecType" speedFactor="1.01" vaporized="">
        <emissions CO_abs="56152.279736" CO2_abs="2254570.697593" HC_abs="307.634379" PMx_abs="39.908562" NOx_abs="914.351479" fuel_abs="719118.562085" electricity_abs="0"/>
    </tripinfo>
    <tripinfo id="24" depart="18003.00" departLane="123867455_0" departPos="5.10" departSpeed="0.00" departDelay="3.00" arrival="18860.00" arrivalLane="123867455_0" arrivalPos="904.85" arrivalSpeed="23.81" duration="857.00" routeLength="6219.34" waitingTime="214.00" waitingCount="10" stopTime="20.00" timeLoss="319.15" rerouteNo="2" devices="vehroute_24 tripinfo_24 emissions_24" vType="vecType" speedFactor="0.83" vaporized="">
        <emissions CO_abs="66407.530945" CO2_abs="2244405.421416" HC_abs="354.027466" PMx_abs="42.628356" NOx_abs="919.239389" fuel_abs="715880.179199" electricity_abs="0"/>
    </tripinfo>
    <tripinfo id="40" depart="18000.00" departLane="-206679802#4_0" departPos="5.10" departSpeed="0.00" departDelay="0.00" arrival="18862.00" arrivalLane="-206679802#4_0" arrivalPos="292.11" arrivalSpeed="11.35" duration="862.00" routeLength="6247.90" waitingTime="205.00" waitingCount="7" stopTime="20.00" timeLoss="298.82" rerouteNo="7" devices="vehroute_40 tripinfo_40 emissions_40" vType="vecType" speedFactor="1.03" vaporized="">
        <emissions CO_abs="57514.305940" CO2_abs="2133062.431382" HC_abs="311.145215" PMx_abs="37.488265" NOx_abs="871.344831" fuel_abs="680364.834544" electricity_abs="0"/>
    </tripinfo>
    <tripinfo id="64" depart="18060.00" departLane="28319343#2_0" departPos="5.10" departSpeed="0.00" departDelay="0.00" arrival="18872.00" arrivalLane="28319343#2_0" arrivalPos="90.58" arrivalSpeed="9.67" duration="812.00" routeLength="9974.14" waitingTime="218.00" waitingCount="8" stopTime="0.00" timeLoss="285.20" rerouteNo="1" devices="vehroute_64 tripinfo_64 emissions_64" vType="vecType" speedFactor="0.94" vaporized="">
        <emissions CO_abs="65457.972594" CO2_abs="2738206.969169" HC_abs="362.785961" PMx_abs="54.980321" NOx_abs="1086.364636" fuel_abs="873375.067510" electricity_abs="0"/>
    </tripinfo>
    <tripinfo id="85" depart="18126.00" departLane="90077241_0" departPos="5.10" departSpeed="0.00" departDelay="6.00" arrival="18887.00" arrivalLane="90077241_0" arrivalPos="3225.35" arrivalSpeed="27.45" duration="761.00" routeLength="11984.76" waitingTime="141.00" waitingCount="8" stopTime="20.00" timeLoss="211.47" rerouteNo="1" devices="vehroute_85 tripinfo_85 emissions_85" vType="vecType" speedFactor="0.98" vaporized="">
        <emissions CO_abs="59983.909234" CO2_abs="3033910.405636" HC_abs="346.378620" PMx_abs="62.603882" NOx_abs="1173.072364" fuel_abs="967685.718764" electricity_abs="0"/>
    </tripinfo>
    <tripinfo id="42" depart="18009.00" departLane="31129765_0" departPos="5.10" departSpeed="0.00" departDelay="9.00" arrival="18894.00" arrivalLane="31129765_0" arrivalPos="639.51" arrivalSpeed="23.98" duration="885.00" routeLength="7763.38" waitingTime="283.00" waitingCount="12" stopTime="20.00" timeLoss="396.67" rerouteNo="1" devices="vehroute_42 tripinfo_42 emissions_42" vType="vecType" speedFactor="1.09" vaporized="">
        <emissions CO_abs="79218.155837" CO2_abs="2874652.622612" HC_abs="427.975061" PMx_abs="58.312098" NOx_abs="1186.965202" fuel_abs="916898.461668" electricity_abs="0"/>
    </tripinfo>
    <tripinfo id="29" depart="18000.00" departLane="-35977367#2_0" departPos="5.10" departSpeed="0.00" departDelay="0.00" arrival="18896.00" arrivalLane="-35977367#2_0" arrivalPos="431.73" arrivalSpeed="9.83" duration="896.00" routeLength="6273.32" waitingTime="177.00" waitingCount="9" stopTime="20.00" timeLoss="273.30" rerouteNo="3" devices="vehroute_29 tripinfo_29 emissions_29" vType="vecType" speedFactor="0.93" vaporized="">
        <emissions CO_abs="55376.519359" CO2_abs="2074952.980385" HC_abs="299.835232" PMx_abs="34.935608" NOx_abs="841.393686" fuel_abs="661831.217902" electricity_abs="0"/>
    </tripinfo>
    <tripinfo id="25" depart="18003.00" departLane="-23883761_0" departPos="5.10" departSpeed="0.00" departDelay="3.00" arrival="18905.00" arrivalLane="-23883761_0" arrivalPos="197.88" arrivalSpeed="8.72" duration="902.00" routeLength="5896.49" waitingTime="179.00" waitingCount="11" stopTime="20.00" timeLoss="277.51" rerouteNo="2" devices="vehroute_25 tripinfo_25 emissions_25" vType="vecType" speedFactor="0.87" vaporized="">
        <emissions CO_abs="56666.382653" CO2_abs="1962249.013176" HC_abs="302.948065" PMx_abs="32.962461" NOx_abs="797.064978" fuel_abs="625885.594768" electricity_abs="0"/>
    </tripinfo>
    <tripinfo id="10" depart="18000.00" departLane="90077241_0" departPos="5.10" departSpeed="0.00" departDelay="0.00" arrival="18908.00" arrivalLane="90077241_0" arrivalPos="3225.35" arrivalSpeed="30.55" duration="908.00" routeLength="12917.03" waitingTime="240.00" waitingCount="10" stopTime="20.00" timeLoss="338.63" rerouteNo="5" devices="vehroute_10 tripinfo_10 emissions_10" vType="vecType" speedFactor="1.09" vaporized="">
        <emissions CO_abs="92253.437933" CO2_abs="3808847.731391" HC_abs="513.446698" PMx_abs="84.081675" NOx_abs="1516.463216" fuel_abs="1214861.246955" electricity_abs="0"/>
    </tripinfo>
    <tripinfo id="99" depart="18180.00" departLane="-27029204_0" departPos="5.10" departSpeed="0.00" departDelay="0.00" arrival="18918.00" arrivalLane="-27029204_0" arrivalPos="195.60" arrivalSpeed="11.85" duration="738.00" routeLength="5700.35" waitingTime="214.00" waitingCount="9" stopTime="20.00" timeLoss="303.28" rerouteNo="2" devices="vehroute_99 tripinfo_99 emissions_99" vType="vecType" speedFactor="1.10" vaporized="">
        <emissions CO_abs="57788.694037" CO2_abs="2101399.297215" HC_abs="311.549654" PMx_abs="39.961943" NOx_abs="866.676653" fuel_abs="670263.578407" electricity_abs="0"/>
    </tripinfo>
    <tripinfo id="53" depart="18060.00" departLane="-27029200#2_0" departPos="5.10" departSpeed="0.00" departDelay="0.00" arrival="18929.00" arrivalLane="-27029200#2_0" arrivalPos="66.62" arrivalSpeed="11.26" duration="869.00" routeLength="6523.13" waitingTime="254.00" waitingCount="12" stopTime="20.00" timeLoss="367.27" rerouteNo="3" devices="vehroute_53 tripinfo_53 emissions_53" vType="vecType" speedFactor="1.10" vaporized="">
        <emissions CO_abs="68627.648628" CO2_abs="2431124.720718" HC_abs="368.593783" PMx_abs="46.182588" NOx_abs="1004.932832" fuel_abs="775433.933895" electricity_abs="0"/>
    </tripinfo>
    <tripinfo id="43" depart="18012.00" departLane="123867455_0" departPos="5.10" departSpeed="0.00" departDelay="12.00" arrival="18956.00" arrivalLane="123867455_0" arrivalPos="904.85" arrivalSpeed="29.45" duration="944.00" routeLength="8280.56" waitingTime="221.00" waitingCount="11" stopTime="20.00" timeLoss="351.26" rerouteNo="2" devices="vehroute_43 tripinfo_43 emissions_43" vType="vecType" speedFactor="1.04" vaporized="">
        <emissions CO_abs="71319.877405" CO2_abs="2829267.449968" HC_abs="391.095599" PMx_abs="54.141239" NOx_abs="1158.947368" fuel_abs="902421.116250" electricity_abs="0"/>
    </tripinfo>
    <tripinfo id="90" depart="18120.00" departLane="-254758120#3_0" departPos="5.10" departSpeed="0.00" departDelay="0.00" arrival="18956.00" arrivalLane="-254758120#3_0" arrivalPos="147.41" arrivalSpeed="11.11" duration="836.00" routeLength="5221.94" waitingTime="274.00" waitingCount="10" stopTime="20.00" timeLoss="356.57" rerouteNo="1" devices="vehroute_90 tripinfo_90 emissions_90" vType="vecType" speedFactor="1.02" vaporized="">
        <emissions CO_abs="65021.219945" CO2_abs="2013700.630403" HC_abs="342.541952" PMx_abs="36.827025" NOx_abs="832.165012" fuel_abs="642298.170739" electricity_abs="0"/>
    </tripinfo>
    <tripinfo id="3" depart="18000.00" departLane="-133781749_0" departPos="5.10" departSpeed="0.00" departDelay="0.00" arrival="18958.00" arrivalLane="-133781749_0" arrivalPos="138.68" arrivalSpeed="11.29" duration="958.00" routeLength="7501.04" waitingTime="225.00" waitingCount="17" stopTime="20.00" timeLoss="369.66" rerouteNo="1" devices="vehroute_3 tripinfo_3 emissions_3" vType="vecType" speedFactor="1.08" vaporized="">
        <emissions CO_abs="70110.793421" CO2_abs="2693884.423255" HC_abs="381.741464" PMx_abs="50.077103" NOx_abs="1109.247547" fuel_abs="859241.411131" electricity_abs="0"/>
    </tripinfo>
    <tripinfo id="75" depart="18120.00" departLane="-254297762#2_0" departPos="5.10" departSpeed="0.00" departDelay="0.00" arrival="18962.00" arrivalLane="-254297762#2_0" arrivalPos="291.17" arrivalSpeed="10.31" duration="842.00" routeLength="5758.38" waitingTime="190.00" waitingCount="12" stopTime="20.00" timeLoss="298.66" rerouteNo="2" devices="vehroute_75 tripinfo_75 emissions_75" vType="vecType" speedFactor="0.98" vaporized="">
        <emissions CO_abs="56743.244521" CO2_abs="2042866.809418" HC_abs="305.516041" PMx_abs="35.721776" NOx_abs="835.280606" fuel_abs="651597.024963" electricity_abs="0"/>
    </tripinfo>
    <tripinfo id="9" depart="18000.00" departLane="23959829#0_0" departPos="5.10" departSpeed="0.00" departDelay="0.00" arrival="18966.00" arrivalLane="23959829#0_0" arrivalPos="45.86" arrivalSpeed="8.42" duration="966.00" routeLength="6745.88" waitingTime="196.00" waitingCount="9" stopTime="20.00" timeLoss="306.23" rerouteNo="2" devices="vehroute_9 tripinfo_9 emissions_9" vType="vecType" speedFactor="0.86" vaporized="">
        <emissions CO_abs="63321.566185" CO2_abs="2289478.282284" HC_abs="340.491629" PMx_abs="39.325304" NOx_abs="928.264009" fuel_abs="730257.375387" electricity_abs="0"/>
    </tripinfo>
    <tripinfo id="73" depart="18120.00" departLane="-204967525_0" departPos="5.10" departSpeed="0.00" departDelay="0.00" arrival="18968.00" arrivalLane="-204967525_1" arrivalPos="146.26" arrivalSpeed="11.41" duration="848.00" routeLength="5090.57" waitingTime="299.00" waitingCount="9" stopTime="20.00" timeLoss="396.51" rerouteNo="1" devices="vehroute_73 tripinfo_73 emissions_73" vType="vecType" speedFactor="1.06" vaporized="">
        <emissions CO_abs="71829.996447" CO2_abs="2218743.250399" HC_abs="378.565646" PMx_abs="42.680381" NOx_abs="931.609451" fuel_abs="707697.031879" electricity_abs="0"/>
    </tripinfo>
    <tripinfo id="56" depart="18066.00" departLane="31129765_0" departPos="5.10" departSpeed="0.00" departDelay="6.00" arrival="18970.00" arrivalLane="31129765_0" arrivalPos="639.51" arrivalSpeed="19.65" duration="904.00" routeLength="13447.31" waitingTime="169.00" waitingCount="5" stopTime="0.00" timeLoss="238.32" rerouteNo="4" devices="vehroute_56 tripinfo_56 emissions_56" vType="vecType" speedFactor="0.90" vaporized="">
        <emissions CO_abs="60731.474594" CO2_abs="3250087.025073" HC_abs="352.016039" PMx_abs="62.104054" NOx_abs="1246.434060" fuel_abs="1036637.786700" electricity_abs="0"/>
    </tripinfo>
    <tripinfo id="41" depart="18003.00" departLane="144489137#0_0" departPos="5.10" departSpeed="0.00" departDelay="3.00" arrival="18973.00" arrivalLane="144489137#0_0" arrivalPos="135.49" arrivalSpeed="10.50" duration="970.00" routeLength="5119.82" waitingTime="371.00" waitingCount="15" stopTime="20.00" timeLoss="474.89" rerouteNo="1" devices="vehroute_41 tripinfo_41 emissions_41" vType="vecType" speedFactor="0.96" vaporized="">
        <emissions CO_abs="85889.704248" CO2_abs="2361576.991258" HC_abs="445.827272" PMx_abs="45.768124" NOx_abs="996.060656" fuel_abs="753261.131969" electricity_abs="0"/>
    </tripinfo>
    <tripinfo id="0" depart="18000.00" departLane="84823308_0" departPos="5.10" departSpeed="0.00" departDelay="0.00" arrival="18975.00" arrivalLane="84823308_0" arrivalPos="275.63" arrivalSpeed="11.50" duration="975.00" routeLength="6825.84" waitingTime="260.00" waitingCount="12" stopTime="20.00" timeLoss="378.25" rerouteNo="24" devices="vehroute_0 tripinfo_0 emissions_0" vType="vecType" speedFactor="1.06" vaporized="">
        <emissions CO_abs="70152.683765" CO2_abs="2506466.852824" HC_abs="377.059582" PMx_abs="44.773455" NOx_abs="1027.592350" fuel_abs="799467.366688" electricity_abs="0"/>
    </tripinfo>
    <tripinfo id="79" depart="18120.00" departLane="-24310636#2_0" departPos="5.10" departSpeed="0.00" departDelay="0.00" arrival="18977.00" arrivalLane="-24310636#2_1" arrivalPos="108.36" arrivalSpeed="11.57" duration="857.00" routeLength="6581.41" waitingTime="237.00" waitingCount="9" stopTime="20.00" timeLoss="346.28" rerouteNo="1" devices="vehroute_79 tripinfo_79 emissions_79" vType="vecType" speedFactor="1.09" vaporized="">
        <emissions CO_abs="65038.867186" CO2_abs="2412501.969224" HC_abs="351.913201" PMx_abs="45.148973" NOx_abs="992.383028" fuel_abs="769492.938332" electricity_abs="0"/>
    </tripinfo>