<?xml version="1.0" encoding="UTF-8"?>

<!-- generated on 2023-01-10 07:31:56 by Eclipse SUMO sumo Version 1.14.1
<configuration xmlns:xsi="http://www.w3.org/2001/XMLSchema-instance" xsi:noNamespaceSchemaLocation="http://sumo.dlr.de/xsd/sumoConfiguration.xsd">

    <input>
        <net-file value="./strategia1_config/../san_francisco.net.xml"/>
        <route-files value="./strategia1_config/../san_francisco.rou.xml"/>
        <additional-files value="./strategia1_config/../san_francisco.poly.xml,./strategia1_config/../parking_capacity_75%25/off_parking_75%25.add.xml,./strategia1_config/../parking_capacity_75%25/on_parking_75%25.add.xml"/>
    </input>

    <output>
        <emission-output value="./strategia1_config/../output/strategia1/75%25/emissions.xml"/>
        <tripinfo-output value="./strategia1_config/../output/strategia1/75%25/tripinfo.xml"/>
        <vehroute-output value="./strategia1_config/../output/strategia1/75%25/vehroute.xml"/>
        <stop-output value="./strategia1_config/../output/strategia1/75%25/stops.xml"/>
        <collision-output value="./strategia1_config/../output/strategia1/75%25/collision.xml"/>
        <statistic-output value="./strategia1_config/../output/strategia1/75%25/statistic.xml"/>
    </output>

    <time>
        <step-length value="1"/>
    </time>

    <processing>
        <ignore-route-errors value="false"/>
    </processing>

    <report>
        <verbose value="true"/>
        <xml-validation value="never"/>
    </report>

    <traci_server>
        <remote-port value="49866"/>
    </traci_server>

    <gui_only>
        <gui-settings-file value="./strategia1_config/../gui-settings.cfg"/>
        <start value="true"/>
    </gui_only>

</configuration>
-->

<routes xmlns:xsi="http://www.w3.org/2001/XMLSchema-instance" xsi:noNamespaceSchemaLocation="http://sumo.dlr.de/xsd/routes_file.xsd">
    <vehicle id="116" type="vecType" depart="18240.00" arrival="18834.00">
        <route edges="48211196#5 -48211196#6 30029878#5 30029878#6 30029878#7 30029878#8 30029878#10 30029878#11 30029878#12 30029878#13 30029878#14 30029878#15 288065247#0 -24335483#5 -27166421#8 -27166421#7 -27166421#6 -27166421#5 27398045#7 8919058 8916882#0 -91181760#0 27166466#0 27166466#2 27166466#3 254297761#0 254297761#2 254297761#4 254758128#0 254758128#1 254448247#0 -85789165 85789166#0 88572895#0 214545530#0 214545530#3 214545530#4 214545530#7 143617593 254758139#0 254758139#1 162931811#0 -7373736#0 7373728 -133755923#0 -28518571#1 -28518571#0 -8916792"/>
    </vehicle>

    <vehicle id="64" type="vecType" depart="18060.00" arrival="18872.00">
        <routeDistribution>
            <route replacedOnEdge="50690291#0" replacedOnIndex="16" reason="traci:changeTarget" replacedAtTime="18338.00" probability="0" edges="28319343#2 28319343#3 24245406 224199013#0 224199013#1 224199013#2 224373753 88597563#0 256400244#0 225432457 -99231486 364480601#0 283537380#0 283537380#1 283537380#2 8915351 50690291#0 50690291#1"/>
            <route edges="28319343#2 28319343#3 24245406 224199013#0 224199013#1 224199013#2 224373753 88597563#0 256400244#0 225432457 -99231486 364480601#0 283537380#0 283537380#1 283537380#2 8915351 50690291#0 50690291#1 gneE4 90077241 8921938 120813417 31129372 -35675861#0 -35675862 27397692 8918460#0 99231463#0 224373751 28319343#0 28319343#1 28319343#2"/>
        </routeDistribution>
    </vehicle>

    <vehicle id="71" type="vecType" depart="18120.00" arrival="19058.00">
        <routeDistribution>
            <route replacedOnEdge="175354957#1" replacedOnIndex="14" reason="traci:changeTarget" replacedAtTime="18403.00" probability="0" edges="52432938#0 52432938#1 255351721#0 -27656675 26943623 133735130#0 255330036#7 -8919615#1 -8919615#0 8916553#1 -8916551 -88559680#2 88559650 175354957#0 175354957#1 50690291#1"/>
            <route edges="52432938#0 52432938#1 255351721#0 -27656675 26943623 133735130#0 255330036#7 -8919615#1 -8919615#0 8916553#1 -8916551 -88559680#2 88559650 175354957#0 175354957#1 50690291#1 gneE4 90077241 8921938 120813417 202485364 8915062 143617593 254758139#0 254758139#1 162931811#0 162931811#1 143617587 26943653#0 52432939 255330070#0 255330070#3 52432938#0"/>
        </routeDistribution>
    </vehicle>

    <vehicle id="94" type="vecType" depart="18120.00" arrival="19248.00">
        <routeDistribution>
            <route replacedOnEdge="50690291#0" replacedOnIndex="19" reason="traci:changeTarget" replacedAtTime="18607.00" probability="0" edges="254758124#0 254758124#1 86303763#6 86303763#10 86303763#11 86303763#14 86303763#17 111586257 28841123#0 224316522#0 133733590#0 -224384019#1 88597577#0 88559691#0 88559691#4 225518502#0 329607867 27772070 202317709 50690291#0 50690291#1"/>
            <route edges="254758124#0 254758124#1 86303763#6 86303763#10 86303763#11 86303763#14 86303763#17 111586257 28841123#0 224316522#0 133733590#0 -224384019#1 88597577#0 88559691#0 88559691#4 225518502#0 329607867 27772070 202317709 50690291#0 50690291#1 gneE4 90077241 8921938 120813417 202485364 8915062 -214545530#7 -214545530#6 -214545530#3 -214545530#2 -88572895#2 -88572895#0 -85789166#3 85789165 30832507#0 30832507#1 27400639#0 27400639#1 26938124#4 26938124#5 26938124#6 26938124#9 26938124#12 26938124#13 100400947#4 27166444 254758124#0"/>
        </routeDistribution>
    </vehicle>

    <vehicle id="228" type="vecType" depart="19080.00" arrival="19382.00">
        <route edges="144489137#3 254758126#1 254758126#2 254758126#3 254758126#4 254758126#5 254758126#6 25372932#0 25372932#1 254756525#23 254756525#25 254756525#26"/>
    </vehicle>

    <vehicle id="241" type="vecType" depart="19440.00" arrival="19564.00">
        <route edges="288065247#6 -288065247#6 254756525#20 254756525#23 254756525#25 254756525#26"/>
    </vehicle>

    <vehicle id="39" type="vecType" depart="18006.00" arrival="19749.00">
        <routeDistribution>
            <route replacedOnEdge="-88559661#2" replacedOnIndex="15" reason="traci:setRoute" replacedAtTime="18336.00" probability="0" edges="31129765 123741465 8915117 8915115#0 8915115#1 254299118#0 254299118#1 254299118#2 254299118#3 254308548#0 254308548#2 186400365 143666207#0 254299117#0 254299117#1 -88559661#2 -88559661#0"/>
            <route replacedOnEdge="-88559661#0" replacedOnIndex="16" reason="traci:setRoute" replacedAtTime="18340.00" probability="0" edges="31129765 123741465 8915117 8915115#0 8915115#1 254299118#0 254299118#1 254299118#2 254299118#3 254308548#0 254308548#2 186400365 143666207#0 254299117#0 254299117#1 -88559661#2 -88559661#0 -225518512#1"/>
            <route replacedOnEdge="-225518512#1" replacedOnIndex="17" reason="traci:changeTarget" replacedAtTime="18415.00" probability="0" edges="31129765 123741465 8915117 8915115#0 8915115#1 254299118#0 254299118#1 254299118#2 254299118#3 254308548#0 254308548#2 186400365 143666207#0 254299117#0 254299117#1 -88559661#2 -88559661#0 -225518512#1 225518502#0"/>
            <route edges="31129765 123741465 8915117 8915115#0 8915115#1 254299118#0 254299118#1 254299118#2 254299118#3 254308548#0 254308548#2 186400365 143666207#0 254299117#0 254299117#1 -88559661#2 -88559661#0 -225518512#1 225518512#0 88559702#0 88559702#1 88559702#2 25758528#0 25758528#1 8915151 31129732#1 31129732#2 254299122 154966358 gneE27 31129765"/>
        </routeDistribution>
        <stop parkingArea="parkingArea_-225518512#1_0_517" duration="1020.00" parking="1"/>
    </vehicle>

    <vehicle id="177" type="vecType" depart="18600.00" arrival="19941.00">
        <routeDistribution>
            <route replacedOnEdge="50690291#0" replacedOnIndex="33" reason="traci:changeTarget" replacedAtTime="19058.00" probability="0" edges="-30029708#0 30030100#0 30030100#2 148846995 148846996#0 148846996#1 148846996#2 -48211487#2 -48211487#1 -48211487#0 48211960 87376672#0 87376672#1 -91185877#1 -91185877#0 -254971056#1 -8922640#1 27054205#0 27054205#1 27054209#0 -254756526#1 -254396719#1 -254466686#4 27054213#4 27054213#6 91181774#0 8919020#0 88572905 91181770#0 283537380#0 283537380#1 283537380#2 8915351 50690291#0 50690291#1"/>
            <route edges="-30029708#0 30030100#0 30030100#2 148846995 148846996#0 148846996#1 148846996#2 -48211487#2 -48211487#1 -48211487#0 48211960 87376672#0 87376672#1 -91185877#1 -91185877#0 -254971056#1 -8922640#1 27054205#0 27054205#1 27054209#0 -254756526#1 -254396719#1 -254466686#4 27054213#4 27054213#6 91181774#0 8919020#0 88572905 91181770#0 283537380#0 283537380#1 283537380#2 8915351 50690291#0 50690291#1 gneE4 90077241 8921938 120813417 31129372 8922307 364480069 364480068#0 364480068#1 364480068#2 88572881#0 88572881#3 88597575#0 88597575#1 254466686#2 254466686#3 254466686#4 254396719#0 254756526#0 254971069#0 27054195#0 8922640#0 254971056#0 91185877#0 91185877#1 30030101#0 30030101#1 87376669 48211487#0 48211487#1 48211487#2 48211828 254756518 148874363#0 148874364#0 148874364#1 148874364#3 30029708#0 -30029708#0"/>
        </routeDistribution>
    </vehicle>

    <vehicle id="243" type="vecType" depart="19440.00" arrival="20173.00">
        <route edges="-48211196#4 -48211196#2 48211195#1 30030100#2 148846995 148846996#0 148846996#1 148846996#2 -48211487#2 -48211487#1 -48211487#0 48211960 87376672#0 87376672#1 -91185877#1 -91185877#0 -254971056#1 -8922640#1 27054205#0 27054205#1 8916867#0 8916867#2 287958607#0 287958607#2 287958607#3 287958607#4 133733590#0 -224384019#1 88597577#0 88559691#0 88559691#4 225518512#0 88559661#0 88559661#1 88559680#0 88559680#3 88559680#5 224384059#0 8920394#1 27656675 133755930#0 133755930#1"/>
    </vehicle>

    <vehicle id="208" type="vecType" depart="18960.00" arrival="20176.00">
        <routeDistribution>
            <route replacedOnEdge="364480601#1" replacedOnIndex="20" reason="traci:setRoute" replacedAtTime="19414.00" probability="0" edges="-144346316#5 -144346316#4 -144346316#2 -100400941#1 -100400941#0 -91181760#2 -91181760#0 -100400946 -91181759#5 -28841115#2 -28841115#1 286003244#6 286003244#9 224316514#0 254306572#0 224316513#0 91181774#0 8919020#0 88572905 91181770#0 364480601#1 8919403#0"/>
            <route replacedOnEdge="8919403#0" replacedOnIndex="21" reason="traci:setRoute" replacedAtTime="19431.00" probability="0" edges="-144346316#5 -144346316#4 -144346316#2 -100400941#1 -100400941#0 -91181760#2 -91181760#0 -100400946 -91181759#5 -28841115#2 -28841115#1 286003244#6 286003244#9 224316514#0 254306572#0 224316513#0 91181774#0 8919020#0 88572905 91181770#0 364480601#1 8919403#0 27772070"/>
            <route replacedOnEdge="27772070" replacedOnIndex="22" reason="traci:setRoute" replacedAtTime="19440.00" probability="0" edges="-144346316#5 -144346316#4 -144346316#2 -100400941#1 -100400941#0 -91181760#2 -91181760#0 -100400946 -91181759#5 -28841115#2 -28841115#1 286003244#6 286003244#9 224316514#0 254306572#0 224316513#0 91181774#0 8919020#0 88572905 91181770#0 364480601#1 8919403#0 27772070 202317709"/>
            <route replacedOnEdge="202317709" replacedOnIndex="23" reason="traci:setRoute" replacedAtTime="19447.00" probability="0" edges="-144346316#5 -144346316#4 -144346316#2 -100400941#1 -100400941#0 -91181760#2 -91181760#0 -100400946 -91181759#5 -28841115#2 -28841115#1 286003244#6 286003244#9 224316514#0 254306572#0 224316513#0 91181774#0 8919020#0 88572905 91181770#0 364480601#1 8919403#0 27772070 202317709 50690291#0"/>
            <route replacedOnEdge="50690291#0" replacedOnIndex="24" reason="traci:changeTarget" replacedAtTime="19452.00" probability="0" edges="-144346316#5 -144346316#4 -144346316#2 -100400941#1 -100400941#0 -91181760#2 -91181760#0 -100400946 -91181759#5 -28841115#2 -28841115#1 286003244#6 286003244#9 224316514#0 254306572#0 224316513#0 91181774#0 8919020#0 88572905 91181770#0 364480601#1 8919403#0 27772070 202317709 50690291#0 50690291#1"/>
            <route edges="-144346316#5 -144346316#4 -144346316#2 -100400941#1 -100400941#0 -91181760#2 -91181760#0 -100400946 -91181759#5 -28841115#2 -28841115#1 286003244#6 286003244#9 224316514#0 254306572#0 224316513#0 91181774#0 8919020#0 88572905 91181770#0 364480601#1 8919403#0 27772070 202317709 50690291#0 50690291#1 gneE4 90077241 8921938 120813417 202485364 8915062 -214545530#7 -214545530#6 -214545530#3 -214545530#2 -88572895#2 -88572895#0 -85789166#3 85789165 30832507#0 30832507#1 27400639#0 27400639#1 27400639#2 277480564 254758126#0 254758126#1 254758126#2 254758126#3 254758126#4 254758126#5 100400947#7 100400947#9 254759938#3 144346316#5 -144346316#5"/>
        </routeDistribution>
    </vehicle>

    <vehicle id="105" type="vecType" depart="18183.00" arrival="20178.00">
        <routeDistribution>
            <route replacedOnEdge="-88559691#6" replacedOnIndex="22" reason="traci:setRoute" replacedAtTime="18614.00" probability="0" edges="8915254 256787755#0 256787755#2 256787755#3 25657409#4 25657409#5 25657409#7 25657409#9 25657409#10 25657409#11 25657409#12 25657409#13 25657409#14 25657409#15 25657409#16 25657409#17 25657409#18 25657409#19 255168047#0 255168047#3 255168046#0 255168046#2 -88559691#6 91181771#3"/>
            <route replacedOnEdge="91181771#3" replacedOnIndex="23" reason="traci:changeTarget" replacedAtTime="18641.00" probability="0" edges="8915254 256787755#0 256787755#2 256787755#3 25657409#4 25657409#5 25657409#7 25657409#9 25657409#10 25657409#11 25657409#12 25657409#13 25657409#14 25657409#15 25657409#16 25657409#17 25657409#18 25657409#19 255168047#0 255168047#3 255168046#0 255168046#2 -88559691#6 91181771#3 91181771#4"/>
            <route edges="8915254 256787755#0 256787755#2 256787755#3 25657409#4 25657409#5 25657409#7 25657409#9 25657409#10 25657409#11 25657409#12 25657409#13 25657409#14 25657409#15 25657409#16 25657409#17 25657409#18 25657409#19 255168047#0 255168047#3 255168046#0 255168046#2 -88559691#6 91181771#3 91181771#4 91181771#5 91181771#6 283534317#2 283534317#5 283534317#6 283534317#8 8915151 31129732#1 26779355 8915704#0 8915704#1 254299121#6 254299121#8 8919947#0 8919947#1 gneE16 8915254"/>
        </routeDistribution>
        <stop parkingArea="parkingArea_91181771#3_3_519" duration="1244.00" parking="1"/>
    </vehicle>

    <vehicle id="16" type="vecType" depart="18006.00" arrival="20222.00">
        <routeDistribution>
            <route replacedOnEdge="283537644#2" replacedOnIndex="8" reason="traci:setRoute" replacedAtTime="18229.00" probability="0" edges="90077241 8921938 120813417 31129372 35675861#1 283537552#0 283537552#1 283537644#0 283537644#2 -225518512#1"/>
            <route replacedOnEdge="-225518512#1" replacedOnIndex="9" reason="traci:changeTarget" replacedAtTime="18280.00" probability="0" edges="90077241 8921938 120813417 31129372 35675861#1 283537552#0 283537552#1 283537644#0 283537644#2 -225518512#1 225518502#0"/>
            <route edges="90077241 8921938 120813417 31129372 35675861#1 283537552#0 283537552#1 283537644#0 283537644#2 -225518512#1 225518502#0 329607867 27772070 202317709 50690291#0 50690291#1 gneE4 90077241"/>
        </routeDistribution>
        <stop parkingArea="parkingArea_-225518512#1_0_517" duration="1554.00" parking="1"/>
    </vehicle>

    <vehicle id="302" type="vecType" depart="19800.00" arrival="20227.00">
        <routeDistribution>
            <route replacedOnEdge="50690291#0" replacedOnIndex="5" reason="traci:changeTarget" replacedAtTime="19869.00" probability="0" edges="-254758139#0 26779600 123741454#3 123741452 202317709 50690291#0 50690291#1"/>
            <route edges="-254758139#0 26779600 123741454#3 123741452 202317709 50690291#0 50690291#1 gneE4 90077241 8921938 120813417 202485364 8915062 143617593 254758139#0 -254758139#0"/>
        </routeDistribution>
    </vehicle>

    <vehicle id="21" type="vecType" depart="18000.00" arrival="20245.00">
        <routeDistribution>
            <route replacedOnEdge="-35675861#1" replacedOnIndex="20" reason="traci:setRoute" replacedAtTime="18282.00" probability="0" edges="27167762 123741465 8915117 8915115#0 8915115#1 254299118#0 254299118#1 254299118#2 254299118#3 254308548#0 254308548#2 186400365 143666207#0 254299117#0 254299117#1 -88559661#2 28842183 -283537644#1 -283537552#1 -283537552#0 -35675861#1 35675861#1"/>
            <route replacedOnEdge="35675861#1" replacedOnIndex="21" reason="traci:changeTarget" replacedAtTime="18327.00" probability="0" edges="27167762 123741465 8915117 8915115#0 8915115#1 254299118#0 254299118#1 254299118#2 254299118#3 254308548#0 254308548#2 186400365 143666207#0 254299117#0 254299117#1 -88559661#2 28842183 -283537644#1 -283537552#1 -283537552#0 -35675861#1 35675861#1 8915351"/>
            <route edges="27167762 123741465 8915117 8915115#0 8915115#1 254299118#0 254299118#1 254299118#2 254299118#3 254308548#0 254308548#2 186400365 143666207#0 254299117#0 254299117#1 -88559661#2 28842183 -283537644#1 -283537552#1 -283537552#0 -35675861#1 35675861#1 283537552#0 283537552#1 283537644#0 283537644#2 88559702#0 88559702#1 88559702#2 25758528#0 25758528#1 8915151 31129732#1 31129732#2 254299122 8915263 gneE20 27167762"/>
        </routeDistribution>
        <stop parkingArea="parkingArea_35675861#1_0_461" duration="1672.00" parking="1"/>
    </vehicle>

    <vehicle id="101" type="vecType" depart="18180.00" arrival="20274.00">
        <routeDistribution>
            <route replacedOnEdge="120256350#0" replacedOnIndex="25" reason="traci:setRoute" replacedAtTime="18546.00" probability="0" edges="224384035#0 224384035#1 30029560#0 -25372932#4 27398045#5 27398045#6 27398045#7 8919058 8916882#0 -91181760#0 -100400946 -91181759#5 -91181759#1 -287958606#3 -287958606#1 -254396709#1 -254466686#4 -254466686#3 -254466686#2 -254466686#1 -254466686#0 -8916375#1 224199013#2 -224200968 120256351 120256350#0 120256350#3"/>
            <route replacedOnEdge="120256350#3" replacedOnIndex="26" reason="traci:changeTarget" replacedAtTime="18607.00" probability="0" edges="224384035#0 224384035#1 30029560#0 -25372932#4 27398045#5 27398045#6 27398045#7 8919058 8916882#0 -91181760#0 -100400946 -91181759#5 -91181759#1 -287958606#3 -287958606#1 -254396709#1 -254466686#4 -254466686#3 -254466686#2 -254466686#1 -254466686#0 -8916375#1 224199013#2 -224200968 120256351 120256350#0 120256350#3 120256350#8"/>
            <route edges="224384035#0 224384035#1 30029560#0 -25372932#4 27398045#5 27398045#6 27398045#7 8919058 8916882#0 -91181760#0 -100400946 -91181759#5 -91181759#1 -287958606#3 -287958606#1 -254396709#1 -254466686#4 -254466686#3 -254466686#2 -254466686#1 -254466686#0 -8916375#1 224199013#2 -224200968 120256351 120256350#0 120256350#3 -242896157#0 8918460#0 99231463#0 224373751 28319343#0 8916375#0 8916375#1 254466686#0 254466686#1 254466686#2 254466686#3 254466686#4 254396719#0 254756526#0 254971069#0 27054195#0 27054196 262943780#0 262943780#1 262943780#3 262943780#4 258613674#0 258613674#1 91182067 30029172#0 30029172#2 30029172#5 30029172#6 254758123#0 30035682#0 30035682#1 gneE7 224384035#0"/>
        </routeDistribution>
        <stop parkingArea="parkingArea_120256350#3_0_52" duration="1077.00" parking="1"/>
    </vehicle>

    <vehicle id="67" type="vecType" depart="18060.00" arrival="20350.00">
        <routeDistribution>
            <route replacedOnEdge="35675861#0" replacedOnIndex="31" reason="traci:setRoute" replacedAtTime="18665.00" probability="0" edges="-24310636#2 111089307#1 111089307#2 191296172#1 25657409#0 25657409#2 25657409#3 25657409#4 25657409#5 25657409#7 25657409#9 25657409#10 25657409#11 25657409#12 25657409#13 25657409#14 25657409#15 25657409#16 25657409#17 25657409#18 25657409#19 255168047#0 255168047#3 255168046#0 255168046#2 225518502#0 329607867 -283537552#1 -283537552#0 -35675861#1 -35675861#0 35675861#0"/>
            <route replacedOnEdge="35675861#0" replacedOnIndex="31" reason="traci:changeTarget" replacedAtTime="18670.00" probability="0" edges="-24310636#2 111089307#1 111089307#2 191296172#1 25657409#0 25657409#2 25657409#3 25657409#4 25657409#5 25657409#7 25657409#9 25657409#10 25657409#11 25657409#12 25657409#13 25657409#14 25657409#15 25657409#16 25657409#17 25657409#18 25657409#19 255168047#0 255168047#3 255168046#0 255168046#2 225518502#0 329607867 -283537552#1 -283537552#0 -35675861#1 -35675861#0 35675861#0 35675861#1"/>
            <route edges="-24310636#2 111089307#1 111089307#2 191296172#1 25657409#0 25657409#2 25657409#3 25657409#4 25657409#5 25657409#7 25657409#9 25657409#10 25657409#11 25657409#12 25657409#13 25657409#14 25657409#15 25657409#16 25657409#17 25657409#18 25657409#19 255168047#0 255168047#3 255168046#0 255168046#2 225518502#0 329607867 -283537552#1 -283537552#0 -35675861#1 -35675861#0 35675861#0 35675861#1 283537552#0 283537552#1 283537644#0 283537644#2 88559702#0 88559702#1 88559702#2 25758528#0 25758528#1 8915151 31129732#1 26779355 8915704#0 8915704#1 254299121#6 254299121#8 254299121#9 25758513 27029200#0 -111089307#4 -111089307#3 -111089307#2 -111089307#1 24310636#2 -24310636#2"/>
        </routeDistribution>
        <stop parkingArea="parkingArea_35675861#0_0_89" duration="1301.00" parking="1"/>
    </vehicle>

    <vehicle id="312" type="vecType" depart="19860.00" arrival="20352.00">
        <route edges="8922307 364480069 364480068#0 364480068#1 364480068#2 88572881#0 88572881#3 88597575#0 88597553#1 88597553#2 254971067#0 254466695#0 254466695#2 254466695#3 329596844#1 28841115#2 91181759#2 100400946 91181760#0 91181760#1 27166421#1 254756525#19 254756525#20 254756525#23 254756525#25 254756525#26"/>
    </vehicle>

    <vehicle id="24" type="vecType" depart="18003.00" arrival="20390.00">
        <routeDistribution>
            <route replacedOnEdge="254299142#7" replacedOnIndex="13" reason="traci:setRoute" replacedAtTime="18465.00" probability="0" edges="123867455 8920391#0 255330048 255351721#0 -27656675 26943623 133735130#0 133735130#2 133735130#4 254299142#0 254299142#1 254299142#2 254299142#3 254299142#7 p4#0"/>
            <route replacedOnEdge="-p4#0" replacedOnIndex="15" reason="traci:setRoute" replacedAtTime="18494.00" probability="0" edges="123867455 8920391#0 255330048 255351721#0 -27656675 26943623 133735130#0 133735130#2 133735130#4 254299142#0 254299142#1 254299142#2 254299142#3 254299142#7 p4#0 -p4#0"/>
            <route replacedOnEdge="-p4#0" replacedOnIndex="15" reason="traci:changeTarget" replacedAtTime="18508.00" probability="0" edges="123867455 8920391#0 255330048 255351721#0 -27656675 26943623 133735130#0 133735130#2 133735130#4 254299142#0 254299142#1 254299142#2 254299142#3 254299142#7 p4#0 -p4#0 254299142#9"/>
            <route edges="123867455 8920391#0 255330048 255351721#0 -27656675 26943623 133735130#0 133735130#2 133735130#4 254299142#0 254299142#1 254299142#2 254299142#3 254299142#7 p4#0 -p4#0 254299142#9 91181771#6 283534317#2 283534317#5 283534317#6 283534317#8 143617591 107674371#0 107674371#1 107674372#0 255330069#0 255330069#1 26943653#0 255330047#0 30454437 gneE21 123867455"/>
        </routeDistribution>
        <stop parkingArea="parkingArea_-p4#0_0_102" duration="1479.00" parking="1"/>
    </vehicle>

    <vehicle id="322" type="vecType" depart="20040.00" arrival="20406.00">
        <route edges="99231460 27398032#0 -43100046 8917778 174822357#0 -255330036#12 -255330036#11 -255330036#10 -255330036#9 -255330036#8 -255330036#7 -255330036#6 -255330036#4 -255330036#3 -255330036#2 -141688972#2 162931811#0 -7373736#0 7373728 -133755923#0 -28518571#1 -28518571#0 -8916792"/>
    </vehicle>

    <vehicle id="313" type="vecType" depart="19920.00" arrival="20414.00">
        <route edges="-111089307#4 111089307#4 -27029200#1 -25758513 27029265#3 186400366#0 186400366#1 186400366#2 247960234#1 247966218#0 247966218#3 247966218#4 247966218#5 247966218#6 247966218#7 247966218#8 141688972#0 141688972#1 162931811#0 162931811#1 143617587 26943653#0 52432939 255330070#0 255330070#3 52432936#0"/>
    </vehicle>

    <vehicle id="300" type="vecType" depart="19800.00" arrival="20449.00">
        <route edges="-242896157#0 8918460#0 99231463#0 224373751 28319343#0 8916375#0 8916375#1 254466686#0 254466686#1 254466686#2 254466686#3 254466686#4 254396719#0 254756526#0 254971069#0 27054195#0 8922640#0 254971056#0 91185877#0 91185877#1 30030101#0 30030101#1 87376669 48211487#0 48211487#1 48211487#2 48211828 254756518 148874363#0 148874364#0 148874364#1 148874364#3 30029708#0 30029708#1 30029708#2 30029866#0 30029866#2 30029866#3 87297168 204967525"/>
    </vehicle>

    <vehicle id="159" type="vecType" depart="18540.00" arrival="20460.00">
        <routeDistribution>
            <route replacedOnEdge="27570802#0" replacedOnIndex="19" reason="traci:setRoute" replacedAtTime="18716.00" probability="0" edges="28805009#5 24335487#1 24335487#2 -254756527 -148874366 148874363#0 148874364#0 148874364#1 148874364#3 30029708#0 30029708#1 30029708#2 30029866#0 30029866#2 88396403 -27570798#4 -27570798#1 -8921255#1 -8921255#0 27570802#0 27570802#1"/>
            <route replacedOnEdge="27570802#1" replacedOnIndex="20" reason="traci:changeTarget" replacedAtTime="18730.00" probability="0" edges="28805009#5 24335487#1 24335487#2 -254756527 -148874366 148874363#0 148874364#0 148874364#1 148874364#3 30029708#0 30029708#1 30029708#2 30029866#0 30029866#2 88396403 -27570798#4 -27570798#1 -8921255#1 -8921255#0 27570802#0 27570802#1 -27570802#1"/>
            <route edges="28805009#5 24335487#1 24335487#2 -254756527 -148874366 148874363#0 148874364#0 148874364#1 148874364#3 30029708#0 30029708#1 30029708#2 30029866#0 30029866#2 88396403 -27570798#4 -27570798#1 -8921255#1 -8921255#0 27570802#0 27570802#1 -27570802#1 -27570802#0 8921255#0 8921255#1 27570798#0 -255168048#3 34128718#1 -254299113#2 143666209#2 143666209#3 143666209#4 143666209#6 91185870#0 91185870#1 -30029708#0 30030100#0 30030100#2 148846995 30030472 -24335487#2 -24335487#1 -28805009#5 28805009#5"/>
        </routeDistribution>
        <stop parkingArea="parkingArea_27570802#1_0_276" duration="1369.00" parking="1"/>
    </vehicle>

    <vehicle id="96" type="vecType" depart="18180.00" arrival="20462.00">
        <routeDistribution>
            <route replacedOnEdge="204884121" replacedOnIndex="23" reason="traci:setRoute" replacedAtTime="18749.00" probability="0" edges="90077241 8921938 110361656 111319423 27397919 179235243#1 364480068#1 364480068#2 88572881#0 305585433 228186482#0 204884378#0 225719777#0 224200967 224384019#0 204884387#0 228196396 204884397 228201785#0 228201785#1 225806043 225806042#0 225806041 204884121 -204884121"/>
            <route replacedOnEdge="-204884121" replacedOnIndex="24" reason="traci:setRoute" replacedAtTime="18765.00" probability="0" edges="90077241 8921938 110361656 111319423 27397919 179235243#1 364480068#1 364480068#2 88572881#0 305585433 228186482#0 204884378#0 225719777#0 224200967 224384019#0 204884387#0 228196396 204884397 228201785#0 228201785#1 225806043 225806042#0 225806041 204884121 -204884121 -225806041"/>
            <route replacedOnEdge="-225806041" replacedOnIndex="25" reason="traci:setRoute" replacedAtTime="18768.00" probability="0" edges="90077241 8921938 110361656 111319423 27397919 179235243#1 364480068#1 364480068#2 88572881#0 305585433 228186482#0 204884378#0 225719777#0 224200967 224384019#0 204884387#0 228196396 204884397 228201785#0 228201785#1 225806043 225806042#0 225806041 204884121 -204884121 -225806041 -225806042#1"/>
            <route replacedOnEdge="-225806042#1" replacedOnIndex="26" reason="traci:setRoute" replacedAtTime="18777.00" probability="0" edges="90077241 8921938 110361656 111319423 27397919 179235243#1 364480068#1 364480068#2 88572881#0 305585433 228186482#0 204884378#0 225719777#0 224200967 224384019#0 204884387#0 228196396 204884397 228201785#0 228201785#1 225806043 225806042#0 225806041 204884121 -204884121 -225806041 -225806042#1 -365816000"/>
            <route replacedOnEdge="-365816000" replacedOnIndex="27" reason="traci:setRoute" replacedAtTime="18837.00" probability="0" edges="90077241 8921938 110361656 111319423 27397919 179235243#1 364480068#1 364480068#2 88572881#0 305585433 228186482#0 204884378#0 225719777#0 224200967 224384019#0 204884387#0 228196396 204884397 228201785#0 228201785#1 225806043 225806042#0 225806041 204884121 -204884121 -225806041 -225806042#1 -365816000 -228201785#1"/>
            <route replacedOnEdge="-228201785#0" replacedOnIndex="29" reason="traci:setRoute" replacedAtTime="18848.00" probability="0" edges="90077241 8921938 110361656 111319423 27397919 179235243#1 364480068#1 364480068#2 88572881#0 305585433 228186482#0 204884378#0 225719777#0 224200967 224384019#0 204884387#0 228196396 204884397 228201785#0 228201785#1 225806043 225806042#0 225806041 204884121 -204884121 -225806041 -225806042#1 -365816000 -228201785#1 -228201785#0"/>
            <route replacedOnEdge="-228201785#0" replacedOnIndex="29" reason="traci:changeTarget" replacedAtTime="18853.00" probability="0" edges="90077241 8921938 110361656 111319423 27397919 179235243#1 364480068#1 364480068#2 88572881#0 305585433 228186482#0 204884378#0 225719777#0 224200967 224384019#0 204884387#0 228196396 204884397 228201785#0 228201785#1 225806043 225806042#0 225806041 204884121 -204884121 -225806041 -225806042#1 -365816000 -228201785#1 -228201785#0 -204884397"/>
            <route edges="90077241 8921938 110361656 111319423 27397919 179235243#1 364480068#1 364480068#2 88572881#0 305585433 228186482#0 204884378#0 225719777#0 224200967 224384019#0 204884387#0 228196396 204884397 228201785#0 228201785#1 225806043 225806042#0 225806041 204884121 -204884121 -225806041 -225806042#1 -365816000 -228201785#1 -228201785#0 -204884397 -228196396 -204884387#2 -224384019#1 88597577#0 88559691#0 88559691#4 225518502#0 329607867 27772070 202317709 50690291#0 50690291#1 gneE4 90077241"/>
        </routeDistribution>
        <stop parkingArea="parkingArea_-228201785#0_0_110" duration="1219.00" parking="1"/>
    </vehicle>

    <vehicle id="17" type="vecType" depart="18003.00" arrival="20503.00">
        <routeDistribution>