<?xml version="1.0" encoding="UTF-8"?>

<!-- generated on 2022-12-11 11:13:34 by Eclipse SUMO sumo Version 1.14.1
<configuration xmlns:xsi="http://www.w3.org/2001/XMLSchema-instance" xsi:noNamespaceSchemaLocation="http://sumo.dlr.de/xsd/sumoConfiguration.xsd">

    <input>
        <net-file value="./strategia1_config/../san_francisco.net.xml"/>
        <route-files value="./strategia1_config/../san_francisco.rou.xml"/>
        <additional-files value="./strategia1_config/../san_francisco.poly.xml,./strategia1_config/../parking_capacity_75%25/off_parking_75%25.add.xml,./strategia1_config/../parking_capacity_75%25/on_parking_75%25.add.xml"/>
    </input>

    <output>
        <emission-output value="./strategia1_config/../output/strategia1/75%25/emission.xml"/>
        <summary-output value="./strategia1_config/../output/strategia1/75%25/summary.xml"/>
        <tripinfo-output value="./strategia1_config/../output/strategia1/75%25/tripinfo.xml"/>
        <vehroute-output value="./strategia1_config/../output/strategia1/75%25/vehroute.xml"/>
        <stop-output value="./strategia1_config/../output/strategia1/75%25/stops.xml"/>
        <collision-output value="./strategia1_config/../output/strategia1/75%25/collision.xml"/>
        <statistic-output value="./strategia1_config/../output/strategia1/75%25/statistic.xml"/>
    </output>

    <time>
        <step-length value="1"/>
    </time>

    <processing>
        <ignore-route-errors value="false"/>
        <time-to-teleport value="-1"/>
    </processing>

    <report>
        <verbose value="true"/>
        <xml-validation value="never"/>
    </report>

    <traci_server>
        <remote-port value="64166"/>
    </traci_server>

    <gui_only>
        <gui-settings-file value="./strategia1_config/../gui-settings.cfg"/>
        <start value="true"/>
    </gui_only>

</configuration>
-->

<routes xmlns:xsi="http://www.w3.org/2001/XMLSchema-instance" xsi:noNamespaceSchemaLocation="http://sumo.dlr.de/xsd/routes_file.xsd">
    <vehicle id="0" type="vecType" depart="18000.00" color="yellow" arrival="23384.00">
        <routeDistribution>
            <route replacedOnEdge="-26988030#2" replacedOnIndex="20" reason="traci:changeTarget" replacedAtTime="18270.00" probability="0" edges="84823308 157812260#0 157812260#3 157812260#4 157812260#5 157812260#6 157812260#7 157812260#8 157812260#9 157812260#10 157812260#11 88572922#0 35973460#1 263855294#0 263855294#3 27167270#0 27167270#1 27167270#2 -26988030#4 -26988030#3 -26988030#2 -33789567"/>
            <route replacedOnEdge="-33789567" replacedOnIndex="21" reason="traci:changeTarget" replacedAtTime="18274.00" probability="0" edges="84823308 157812260#0 157812260#3 157812260#4 157812260#5 157812260#6 157812260#7 157812260#8 157812260#9 157812260#10 157812260#11 88572922#0 35973460#1 263855294#0 263855294#3 27167270#0 27167270#1 27167270#2 -26988030#4 -26988030#3 -26988030#2 -33789567 33789567"/>
            <route replacedOnEdge="33789567" replacedOnIndex="22" reason="traci:changeTarget" replacedAtTime="18277.00" probability="0" edges="84823308 157812260#0 157812260#3 157812260#4 157812260#5 157812260#6 157812260#7 157812260#8 157812260#9 157812260#10 157812260#11 88572922#0 35973460#1 263855294#0 263855294#3 27167270#0 27167270#1 27167270#2 -26988030#4 -26988030#3 -26988030#2 -33789567 33789567 -26988030#1"/>
            <route replacedOnEdge="-26988030#1" replacedOnIndex="23" reason="traci:changeTarget" replacedAtTime="18280.00" probability="0" edges="84823308 157812260#0 157812260#3 157812260#4 157812260#5 157812260#6 157812260#7 157812260#8 157812260#9 157812260#10 157812260#11 88572922#0 35973460#1 263855294#0 263855294#3 27167270#0 27167270#1 27167270#2 -26988030#4 -26988030#3 -26988030#2 -33789567 33789567 -26988030#1 26988030#1"/>
            <route replacedOnEdge="26988030#1" replacedOnIndex="24" reason="traci:changeTarget" replacedAtTime="18283.00" probability="0" edges="84823308 157812260#0 157812260#3 157812260#4 157812260#5 157812260#6 157812260#7 157812260#8 157812260#9 157812260#10 157812260#11 88572922#0 35973460#1 263855294#0 263855294#3 27167270#0 27167270#1 27167270#2 -26988030#4 -26988030#3 -26988030#2 -33789567 33789567 -26988030#1 26988030#1 -33789567"/>
            <route replacedOnEdge="-33789567" replacedOnIndex="25" reason="traci:changeTarget" replacedAtTime="18285.00" probability="0" edges="84823308 157812260#0 157812260#3 157812260#4 157812260#5 157812260#6 157812260#7 157812260#8 157812260#9 157812260#10 157812260#11 88572922#0 35973460#1 263855294#0 263855294#3 27167270#0 27167270#1 27167270#2 -26988030#4 -26988030#3 -26988030#2 -33789567 33789567 -26988030#1 26988030#1 -33789567 33789581#0"/>
            <route replacedOnEdge="33789581#0" replacedOnIndex="26" reason="traci:changeTarget" replacedAtTime="18295.00" probability="0" edges="84823308 157812260#0 157812260#3 157812260#4 157812260#5 157812260#6 157812260#7 157812260#8 157812260#9 157812260#10 157812260#11 88572922#0 35973460#1 263855294#0 263855294#3 27167270#0 27167270#1 27167270#2 -26988030#4 -26988030#3 -26988030#2 -33789567 33789567 -26988030#1 26988030#1 -33789567 33789581#0 33789566#0"/>
            <route replacedOnEdge="33789566#0" replacedOnIndex="27" reason="traci:changeTarget" replacedAtTime="18306.00" probability="0" edges="84823308 157812260#0 157812260#3 157812260#4 157812260#5 157812260#6 157812260#7 157812260#8 157812260#9 157812260#10 157812260#11 88572922#0 35973460#1 263855294#0 263855294#3 27167270#0 27167270#1 27167270#2 -26988030#4 -26988030#3 -26988030#2 -33789567 33789567 -26988030#1 26988030#1 -33789567 33789581#0 33789566#0 33789567"/>
            <route replacedOnEdge="33789567" replacedOnIndex="28" reason="traci:changeTarget" replacedAtTime="18308.00" probability="0" edges="84823308 157812260#0 157812260#3 157812260#4 157812260#5 157812260#6 157812260#7 157812260#8 157812260#9 157812260#10 157812260#11 88572922#0 35973460#1 263855294#0 263855294#3 27167270#0 27167270#1 27167270#2 -26988030#4 -26988030#3 -26988030#2 -33789567 33789567 -26988030#1 26988030#1 -33789567 33789581#0 33789566#0 33789567 -33789567"/>
            <route replacedOnEdge="-33789567" replacedOnIndex="29" reason="traci:changeTarget" replacedAtTime="18312.00" probability="0" edges="84823308 157812260#0 157812260#3 157812260#4 157812260#5 157812260#6 157812260#7 157812260#8 157812260#9 157812260#10 157812260#11 88572922#0 35973460#1 263855294#0 263855294#3 27167270#0 27167270#1 27167270#2 -26988030#4 -26988030#3 -26988030#2 -33789567 33789567 -26988030#1 26988030#1 -33789567 33789581#0 33789566#0 33789567 -33789567 33789581#0"/>
            <route replacedOnEdge="33789581#0" replacedOnIndex="30" reason="traci:changeTarget" replacedAtTime="18321.00" probability="0" edges="84823308 157812260#0 157812260#3 157812260#4 157812260#5 157812260#6 157812260#7 157812260#8 157812260#9 157812260#10 157812260#11 88572922#0 35973460#1 263855294#0 263855294#3 27167270#0 27167270#1 27167270#2 -26988030#4 -26988030#3 -26988030#2 -33789567 33789567 -26988030#1 26988030#1 -33789567 33789581#0 33789566#0 33789567 -33789567 33789581#0 -8915763"/>
            <route replacedOnEdge="-8915763" replacedOnIndex="31" reason="traci:changeTarget" replacedAtTime="18323.00" probability="0" edges="84823308 157812260#0 157812260#3 157812260#4 157812260#5 157812260#6 157812260#7 157812260#8 157812260#9 157812260#10 157812260#11 88572922#0 35973460#1 263855294#0 263855294#3 27167270#0 27167270#1 27167270#2 -26988030#4 -26988030#3 -26988030#2 -33789567 33789567 -26988030#1 26988030#1 -33789567 33789581#0 33789566#0 33789567 -33789567 33789581#0 -8915763 8915763"/>
            <route replacedOnEdge="8915763" replacedOnIndex="32" reason="traci:changeTarget" replacedAtTime="18326.00" probability="0" edges="84823308 157812260#0 157812260#3 157812260#4 157812260#5 157812260#6 157812260#7 157812260#8 157812260#9 157812260#10 157812260#11 88572922#0 35973460#1 263855294#0 263855294#3 27167270#0 27167270#1 27167270#2 -26988030#4 -26988030#3 -26988030#2 -33789567 33789567 -26988030#1 26988030#1 -33789567 33789581#0 33789566#0 33789567 -33789567 33789581#0 -8915763 8915763 33789566#0"/>
            <route replacedOnEdge="33789566#0" replacedOnIndex="33" reason="traci:changeTarget" replacedAtTime="18335.00" probability="0" edges="84823308 157812260#0 157812260#3 157812260#4 157812260#5 157812260#6 157812260#7 157812260#8 157812260#9 157812260#10 157812260#11 88572922#0 35973460#1 263855294#0 263855294#3 27167270#0 27167270#1 27167270#2 -26988030#4 -26988030#3 -26988030#2 -33789567 33789567 -26988030#1 26988030#1 -33789567 33789581#0 33789566#0 33789567 -33789567 33789581#0 -8915763 8915763 33789566#0 33789581#0"/>
            <route replacedOnEdge="33789581#0" replacedOnIndex="34" reason="traci:changeTarget" replacedAtTime="18345.00" probability="0" edges="84823308 157812260#0 157812260#3 157812260#4 157812260#5 157812260#6 157812260#7 157812260#8 157812260#9 157812260#10 157812260#11 88572922#0 35973460#1 263855294#0 263855294#3 27167270#0 27167270#1 27167270#2 -26988030#4 -26988030#3 -26988030#2 -33789567 33789567 -26988030#1 26988030#1 -33789567 33789581#0 33789566#0 33789567 -33789567 33789581#0 -8915763 8915763 33789566#0 33789581#0 -8915763"/>
            <route replacedOnEdge="-8915763" replacedOnIndex="35" reason="traci:changeTarget" replacedAtTime="18347.00" probability="0" edges="84823308 157812260#0 157812260#3 157812260#4 157812260#5 157812260#6 157812260#7 157812260#8 157812260#9 157812260#10 157812260#11 88572922#0 35973460#1 263855294#0 263855294#3 27167270#0 27167270#1 27167270#2 -26988030#4 -26988030#3 -26988030#2 -33789567 33789567 -26988030#1 26988030#1 -33789567 33789581#0 33789566#0 33789567 -33789567 33789581#0 -8915763 8915763 33789566#0 33789581#0 -8915763 8915763"/>
            <route replacedOnEdge="8915763" replacedOnIndex="36" reason="traci:changeTarget" replacedAtTime="18350.00" probability="0" edges="84823308 157812260#0 157812260#3 157812260#4 157812260#5 157812260#6 157812260#7 157812260#8 157812260#9 157812260#10 157812260#11 88572922#0 35973460#1 263855294#0 263855294#3 27167270#0 27167270#1 27167270#2 -26988030#4 -26988030#3 -26988030#2 -33789567 33789567 -26988030#1 26988030#1 -33789567 33789581#0 33789566#0 33789567 -33789567 33789581#0 -8915763 8915763 33789566#0 33789581#0 -8915763 8915763 33789566#0"/>
            <route replacedOnEdge="33789566#0" replacedOnIndex="37" reason="traci:changeTarget" replacedAtTime="18359.00" probability="0" edges="84823308 157812260#0 157812260#3 157812260#4 157812260#5 157812260#6 157812260#7 157812260#8 157812260#9 157812260#10 157812260#11 88572922#0 35973460#1 263855294#0 263855294#3 27167270#0 27167270#1 27167270#2 -26988030#4 -26988030#3 -26988030#2 -33789567 33789567 -26988030#1 26988030#1 -33789567 33789581#0 33789566#0 33789567 -33789567 33789581#0 -8915763 8915763 33789566#0 33789581#0 -8915763 8915763 33789566#0 33789581#0"/>
            <route replacedOnEdge="33789581#0" replacedOnIndex="38" reason="traci:changeTarget" replacedAtTime="18369.00" probability="0" edges="84823308 157812260#0 157812260#3 157812260#4 157812260#5 157812260#6 157812260#7 157812260#8 157812260#9 157812260#10 157812260#11 88572922#0 35973460#1 263855294#0 263855294#3 27167270#0 27167270#1 27167270#2 -26988030#4 -26988030#3 -26988030#2 -33789567 33789567 -26988030#1 26988030#1 -33789567 33789581#0 33789566#0 33789567 -33789567 33789581#0 -8915763 8915763 33789566#0 33789581#0 -8915763 8915763 33789566#0 33789581#0 -8915763"/>
            <route replacedOnEdge="-8915763" replacedOnIndex="39" reason="traci:changeTarget" replacedAtTime="18371.00" probability="0" edges="84823308 157812260#0 157812260#3 157812260#4 157812260#5 157812260#6 157812260#7 157812260#8 157812260#9 157812260#10 157812260#11 88572922#0 35973460#1 263855294#0 263855294#3 27167270#0 27167270#1 27167270#2 -26988030#4 -26988030#3 -26988030#2 -33789567 33789567 -26988030#1 26988030#1 -33789567 33789581#0 33789566#0 33789567 -33789567 33789581#0 -8915763 8915763 33789566#0 33789581#0 -8915763 8915763 33789566#0 33789581#0 -8915763 8915763"/>
            <route replacedOnEdge="8915763" replacedOnIndex="40" reason="traci:changeTarget" replacedAtTime="18374.00" probability="0" edges="84823308 157812260#0 157812260#3 157812260#4 157812260#5 157812260#6 157812260#7 157812260#8 157812260#9 157812260#10 157812260#11 88572922#0 35973460#1 263855294#0 263855294#3 27167270#0 27167270#1 27167270#2 -26988030#4 -26988030#3 -26988030#2 -33789567 33789567 -26988030#1 26988030#1 -33789567 33789581#0 33789566#0 33789567 -33789567 33789581#0 -8915763 8915763 33789566#0 33789581#0 -8915763 8915763 33789566#0 33789581#0 -8915763 8915763 33789566#0"/>
            <route replacedOnEdge="33789566#0" replacedOnIndex="41" reason="traci:changeTarget" replacedAtTime="18383.00" probability="0" edges="84823308 157812260#0 157812260#3 157812260#4 157812260#5 157812260#6 157812260#7 157812260#8 157812260#9 157812260#10 157812260#11 88572922#0 35973460#1 263855294#0 263855294#3 27167270#0 27167270#1 27167270#2 -26988030#4 -26988030#3 -26988030#2 -33789567 33789567 -26988030#1 26988030#1 -33789567 33789581#0 33789566#0 33789567 -33789567 33789581#0 -8915763 8915763 33789566#0 33789581#0 -8915763 8915763 33789566#0 33789581#0 -8915763 8915763 33789566#0 33789567"/>
            <route replacedOnEdge="33789567" replacedOnIndex="42" reason="traci:changeTarget" replacedAtTime="18386.00" probability="0" edges="84823308 157812260#0 157812260#3 157812260#4 157812260#5 157812260#6 157812260#7 157812260#8 157812260#9 157812260#10 157812260#11 88572922#0 35973460#1 263855294#0 263855294#3 27167270#0 27167270#1 27167270#2 -26988030#4 -26988030#3 -26988030#2 -33789567 33789567 -26988030#1 26988030#1 -33789567 33789581#0 33789566#0 33789567 -33789567 33789581#0 -8915763 8915763 33789566#0 33789581#0 -8915763 8915763 33789566#0 33789581#0 -8915763 8915763 33789566#0 33789567 -26988030#1"/>
            <route replacedOnEdge="-26988030#1" replacedOnIndex="43" reason="traci:changeTarget" replacedAtTime="18389.00" probability="0" edges="84823308 157812260#0 157812260#3 157812260#4 157812260#5 157812260#6 157812260#7 157812260#8 157812260#9 157812260#10 157812260#11 88572922#0 35973460#1 263855294#0 263855294#3 27167270#0 27167270#1 27167270#2 -26988030#4 -26988030#3 -26988030#2 -33789567 33789567 -26988030#1 26988030#1 -33789567 33789581#0 33789566#0 33789567 -33789567 33789581#0 -8915763 8915763 33789566#0 33789581#0 -8915763 8915763 33789566#0 33789581#0 -8915763 8915763 33789566#0 33789567 -26988030#1 -26988030#0"/>
            <route replacedOnEdge="-225853134" replacedOnIndex="45" reason="traci:changeTarget" replacedAtTime="18406.00" probability="0" edges="84823308 157812260#0 157812260#3 157812260#4 157812260#5 157812260#6 157812260#7 157812260#8 157812260#9 157812260#10 157812260#11 88572922#0 35973460#1 263855294#0 263855294#3 27167270#0 27167270#1 27167270#2 -26988030#4 -26988030#3 -26988030#2 -33789567 33789567 -26988030#1 26988030#1 -33789567 33789581#0 33789566#0 33789567 -33789567 33789581#0 -8915763 8915763 33789566#0 33789581#0 -8915763 8915763 33789566#0 33789581#0 -8915763 8915763 33789566#0 33789567 -26988030#1 -26988030#0 -225853134"/>
            <route edges="84823308 157812260#0 157812260#3 157812260#4 157812260#5 157812260#6 157812260#7 157812260#8 157812260#9 157812260#10 157812260#11 88572922#0 35973460#1 263855294#0 263855294#3 27167270#0 27167270#1 27167270#2 -26988030#4 -26988030#3 -26988030#2 -33789567 33789567 -26988030#1 26988030#1 -33789567 33789581#0 33789566#0 33789567 -33789567 33789581#0 -8915763 8915763 33789566#0 33789581#0 -8915763 8915763 33789566#0 33789581#0 -8915763 8915763 33789566#0 33789567 -26988030#1 -26988030#0 -225853134 225853134 225853133 254759933#4 8921141#0 -88572914#2 -88572941 -88572932#2 -88572932#1 -88572932#0 88572895#0 214545530#0 214545530#3 214545530#4 214545530#7 143617593 254758139#0 254758139#1 162931811#0 -7373736#0 7373728 -133755923#0 -84823308 84823308"/>
        </routeDistribution>
        <stop parkingArea="parkingArea_-225853134_0_680" duration="4380.00" parking="1"/>
    </vehicle>

</routes>
