<?xml version="1.0" encoding="UTF-8"?>

<!-- generated on 2022-12-09 14:22:52 by Eclipse SUMO sumo Version 1.14.1
<configuration xmlns:xsi="http://www.w3.org/2001/XMLSchema-instance" xsi:noNamespaceSchemaLocation="http://sumo.dlr.de/xsd/sumoConfiguration.xsd">

    <input>
        <net-file value="san_francisco.net.xml"/>
        <route-files value="san_francisco.rou.xml"/>
        <additional-files value="san_francisco.poly.xml,parking_capacity_75%25/off_parking_75%25.add.xml,parking_capacity_75%25/on_parking_75%25.add.xml"/>
    </input>

    <output>
        <emission-output value="output/dynamic_area/75%25/emission.xml"/>
        <summary-output value="output/dynamic_area/75%25/summary.xml"/>
        <tripinfo-output value="output/dynamic_area/75%25/tripinfo.xml"/>
        <vehroute-output value="output/dynamic_area/75%25/vehroute.xml"/>
        <stop-output value="output/dynamic_area/75%25/stops.xml"/>
        <collision-output value="output/dynamic_area/75%25/collision.xml"/>
        <statistic-output value="output/dynamic_area/75%25/statistic.xml"/>
    </output>

    <time>
        <step-length value="1"/>
    </time>

    <processing>
        <ignore-route-errors value="false"/>
        <time-to-teleport value="-1"/>
    </processing>

    <report>
        <verbose value="true"/>
        <xml-validation value="never"/>
    </report>

    <traci_server>
        <remote-port value="65011"/>
    </traci_server>

    <gui_only>
        <gui-settings-file value="gui-settings.cfg"/>
        <start value="true"/>
    </gui_only>

</configuration>
-->

<tripinfos xmlns:xsi="http://www.w3.org/2001/XMLSchema-instance" xsi:noNamespaceSchemaLocation="http://sumo.dlr.de/xsd/tripinfo_file.xsd">
    <tripinfo id="30" depart="18000.00" departLane="-91181760#0_0" departPos="5.10" departSpeed="0.00" departDelay="0.00" arrival="18343.00" arrivalLane="-91181760#0_0" arrivalPos="79.70" arrivalSpeed="12.72" duration="343.00" routeLength="3660.42" waitingTime="1.00" waitingCount="1" stopTime="20.00" timeLoss="44.71" rerouteNo="1" devices="vehroute_30 tripinfo_30 emissions_30" vType="vecType" speedFactor="1.18" vaporized="">
        <emissions CO_abs="12325.518505" CO2_abs="961054.931674" HC_abs="77.630651" PMx_abs="15.384813" NOx_abs="379.378810" fuel_abs="306532.753874" electricity_abs="0"/>
    </tripinfo>
    <tripinfo id="1" depart="18000.00" departLane="31129765_0" departPos="5.10" departSpeed="0.00" departDelay="0.00" arrival="18355.00" arrivalLane="31129765_0" arrivalPos="639.51" arrivalSpeed="20.02" duration="355.00" routeLength="4341.32" waitingTime="21.00" waitingCount="2" stopTime="20.00" timeLoss="66.64" rerouteNo="1" devices="vehroute_1 tripinfo_1 emissions_1" vType="vecType" speedFactor="0.94" vaporized="">
        <emissions CO_abs="18473.453438" CO2_abs="1157133.061284" HC_abs="110.382572" PMx_abs="20.926895" NOx_abs="455.710970" fuel_abs="369073.390142" electricity_abs="0"/>
    </tripinfo>
    <tripinfo id="45" depart="18060.00" departLane="31129765_0" departPos="5.10" departSpeed="0.00" departDelay="0.00" arrival="18385.00" arrivalLane="31129765_0" arrivalPos="639.51" arrivalSpeed="24.23" duration="325.00" routeLength="4234.28" waitingTime="40.00" waitingCount="1" stopTime="20.00" timeLoss="81.80" rerouteNo="1" devices="vehroute_45 tripinfo_45 emissions_45" vType="vecType" speedFactor="1.09" vaporized="">
        <emissions CO_abs="23316.669505" CO2_abs="1290714.524229" HC_abs="136.523109" PMx_abs="25.942556" NOx_abs="522.283663" fuel_abs="411679.034282" electricity_abs="0"/>
    </tripinfo>
    <tripinfo id="60" depart="18060.00" departLane="8916792_0" departPos="5.10" departSpeed="0.00" departDelay="0.00" arrival="18488.00" arrivalLane="8916792_0" arrivalPos="615.11" arrivalSpeed="12.02" duration="428.00" routeLength="3743.73" waitingTime="54.00" waitingCount="3" stopTime="20.00" timeLoss="98.45" rerouteNo="1" devices="vehroute_60 tripinfo_60 emissions_60" vType="vecType" speedFactor="1.08" vaporized="">
        <emissions CO_abs="19835.466918" CO2_abs="993441.222749" HC_abs="112.769032" PMx_abs="15.335012" NOx_abs="389.228326" fuel_abs="316867.722007" electricity_abs="0"/>
    </tripinfo>
    <tripinfo id="74" depart="18120.00" departLane="144489137#0_0" departPos="5.10" departSpeed="0.00" departDelay="0.00" arrival="18540.00" arrivalLane="144489137#0_0" arrivalPos="135.49" arrivalSpeed="9.59" duration="420.00" routeLength="2493.63" waitingTime="122.00" waitingCount="6" stopTime="20.00" timeLoss="169.85" rerouteNo="4" devices="vehroute_74 tripinfo_74 emissions_74" vType="vecType" speedFactor="0.96" vaporized="">
        <emissions CO_abs="32068.734218" CO2_abs="1006730.872534" HC_abs="169.313198" PMx_abs="18.733612" NOx_abs="419.611049" fuel_abs="321110.213494" electricity_abs="0"/>
    </tripinfo>
    <tripinfo id="28" depart="18009.00" departLane="90077241_0" departPos="5.10" departSpeed="0.00" departDelay="9.00" arrival="18576.00" arrivalLane="90077241_0" arrivalPos="3225.35" arrivalSpeed="32.41" duration="567.00" routeLength="11899.33" waitingTime="66.00" waitingCount="2" stopTime="20.00" timeLoss="119.65" rerouteNo="3" devices="vehroute_28 tripinfo_28 emissions_28" vType="vecType" speedFactor="1.13" vaporized="">
        <emissions CO_abs="59792.874965" CO2_abs="3078264.065289" HC_abs="349.607715" PMx_abs="70.881186" NOx_abs="1197.447813" fuel_abs="981826.886663" electricity_abs="0"/>
    </tripinfo>
    <tripinfo id="76" depart="18120.00" departLane="225806031#0_0" departPos="5.10" departSpeed="0.00" departDelay="0.00" arrival="18576.00" arrivalLane="225806031#0_0" arrivalPos="142.16" arrivalSpeed="10.68" duration="456.00" routeLength="3181.76" waitingTime="109.00" waitingCount="5" stopTime="20.00" timeLoss="162.06" rerouteNo="1" devices="vehroute_76 tripinfo_76 emissions_76" vType="vecType" speedFactor="1.03" vaporized="">
        <emissions CO_abs="30906.153709" CO2_abs="1137749.936721" HC_abs="167.017472" PMx_abs="20.250034" NOx_abs="466.541512" fuel_abs="362898.297927" electricity_abs="0"/>
    </tripinfo>
    <tripinfo id="35" depart="18000.00" departLane="191296172#0_0" departPos="5.10" departSpeed="0.00" departDelay="0.00" arrival="18610.00" arrivalLane="-47108420#4_0" arrivalPos="5.44" arrivalSpeed="10.75" duration="610.00" routeLength="4097.72" waitingTime="186.00" waitingCount="7" stopTime="0.00" timeLoss="250.52" rerouteNo="1" devices="vehroute_35 tripinfo_35 emissions_35" vType="vecType" speedFactor="1.02" vaporized="">
        <emissions CO_abs="45825.335864" CO2_abs="1497725.774265" HC_abs="243.153536" PMx_abs="26.762961" NOx_abs="614.502332" fuel_abs="477719.868678" electricity_abs="0"/>
    </tripinfo>
    <tripinfo id="49" depart="18063.00" departLane="31129765_0" departPos="5.10" departSpeed="0.00" departDelay="3.00" arrival="18661.00" arrivalLane="31129765_0" arrivalPos="639.51" arrivalSpeed="18.86" duration="598.00" routeLength="12944.78" waitingTime="0.00" waitingCount="0" stopTime="20.00" timeLoss="32.64" rerouteNo="1" devices="vehroute_49 tripinfo_49 emissions_49" vType="vecType" speedFactor="0.85" vaporized="">
        <emissions CO_abs="22913.044486" CO2_abs="2464797.404771" HC_abs="159.232817" PMx_abs="44.718491" NOx_abs="892.904817" fuel_abs="786154.020202" electricity_abs="0"/>
    </tripinfo>
    <tripinfo id="93" depart="18120.00" departLane="-254758121#2_0" departPos="5.10" departSpeed="0.00" departDelay="0.00" arrival="18663.00" arrivalLane="-254758121#2_0" arrivalPos="99.35" arrivalSpeed="10.27" duration="543.00" routeLength="3841.81" waitingTime="92.00" waitingCount="3" stopTime="20.00" timeLoss="149.94" rerouteNo="3" devices="vehroute_93 tripinfo_93 emissions_93" vType="vecType" speedFactor="0.92" vaporized="">
        <emissions CO_abs="32255.474373" CO2_abs="1265398.400399" HC_abs="176.004450" PMx_abs="21.368936" NOx_abs="513.886446" fuel_abs="403612.983447" electricity_abs="0"/>
    </tripinfo>
    <tripinfo id="16" depart="18006.00" departLane="90077241_0" departPos="5.10" departSpeed="0.00" departDelay="6.00" arrival="18688.00" arrivalLane="90077241_0" arrivalPos="3225.35" arrivalSpeed="25.46" duration="682.00" routeLength="11625.26" waitingTime="81.00" waitingCount="3" stopTime="20.00" timeLoss="138.27" rerouteNo="1" devices="vehroute_16 tripinfo_16 emissions_16" vType="vecType" speedFactor="0.88" vaporized="">
        <emissions CO_abs="40973.706153" CO2_abs="2624886.200593" HC_abs="245.759323" PMx_abs="50.018846" NOx_abs="987.149761" fuel_abs="837221.498509" electricity_abs="0"/>
    </tripinfo>
    <tripinfo id="36" depart="18009.00" departLane="123867455_0" departPos="5.10" departSpeed="0.00" departDelay="9.00" arrival="18704.00" arrivalLane="123867455_0" arrivalPos="904.85" arrivalSpeed="27.75" duration="695.00" routeLength="5347.03" waitingTime="257.00" waitingCount="8" stopTime="20.00" timeLoss="342.07" rerouteNo="2" devices="vehroute_36 tripinfo_36 emissions_36" vType="vecType" speedFactor="0.97" vaporized="">
        <emissions CO_abs="66344.620276" CO2_abs="2150183.584592" HC_abs="353.036811" PMx_abs="44.427510" NOx_abs="894.697747" fuel_abs="685825.585283" electricity_abs="0"/>
    </tripinfo>
    <tripinfo id="21" depart="18000.00" departLane="27167762_0" departPos="5.10" departSpeed="0.00" departDelay="0.00" arrival="18710.00" arrivalLane="27167762_0" arrivalPos="139.02" arrivalSpeed="21.40" duration="710.00" routeLength="12026.47" waitingTime="114.00" waitingCount="6" stopTime="0.00" timeLoss="175.53" rerouteNo="4" devices="vehroute_21 tripinfo_21 emissions_21" vType="vecType" speedFactor="1.01" vaporized="">
        <emissions CO_abs="56913.444283" CO2_abs="3021493.195699" HC_abs="332.838251" PMx_abs="62.747283" NOx_abs="1168.873282" fuel_abs="963723.237751" electricity_abs="0"/>
    </tripinfo>
    <tripinfo id="31" depart="18006.00" departLane="123867455_0" departPos="5.10" departSpeed="0.00" departDelay="6.00" arrival="18720.00" arrivalLane="123867455_0" arrivalPos="904.85" arrivalSpeed="32.45" duration="714.00" routeLength="7632.90" waitingTime="131.00" waitingCount="7" stopTime="20.00" timeLoss="229.85" rerouteNo="1" devices="vehroute_31 tripinfo_31 emissions_31" vType="vecType" speedFactor="1.15" vaporized="">
        <emissions CO_abs="49535.127043" CO2_abs="2310275.917275" HC_abs="279.205304" PMx_abs="44.135450" NOx_abs="932.675097" fuel_abs="736879.378366" electricity_abs="0"/>
    </tripinfo>
    <tripinfo id="15" depart="18000.00" departLane="-24310636#2_0" departPos="5.10" departSpeed="0.00" departDelay="0.00" arrival="18754.00" arrivalLane="-24310636#2_1" arrivalPos="108.36" arrivalSpeed="9.87" duration="754.00" routeLength="6010.81" waitingTime="129.00" waitingCount="7" stopTime="20.00" timeLoss="213.95" rerouteNo="1" devices="vehroute_15 tripinfo_15 emissions_15" vType="vecType" speedFactor="0.93" vaporized="">
        <emissions CO_abs="45046.357316" CO2_abs="1850898.690299" HC_abs="247.597788" PMx_abs="31.515136" NOx_abs="744.883658" fuel_abs="590363.723189" electricity_abs="0"/>
    </tripinfo>
    <tripinfo id="20" depart="18000.00" departLane="123867455_0" departPos="5.10" departSpeed="0.00" departDelay="0.00" arrival="18759.00" arrivalLane="123867455_0" arrivalPos="904.85" arrivalSpeed="29.49" duration="759.00" routeLength="6719.97" waitingTime="213.00" waitingCount="7" stopTime="20.00" timeLoss="292.93" rerouteNo="3" devices="vehroute_20 tripinfo_20 emissions_20" vType="vecType" speedFactor="1.02" vaporized="">
        <emissions CO_abs="60651.428343" CO2_abs="2337362.130587" HC_abs="331.156799" PMx_abs="44.895542" NOx_abs="950.344707" fuel_abs="745524.893758" electricity_abs="0"/>
    </tripinfo>
    <tripinfo id="39" depart="18006.00" departLane="31129765_0" departPos="5.10" departSpeed="0.00" departDelay="6.00" arrival="18764.00" arrivalLane="31129765_0" arrivalPos="639.51" arrivalSpeed="19.45" duration="758.00" routeLength="6254.53" waitingTime="249.00" waitingCount="8" stopTime="20.00" timeLoss="321.66" rerouteNo="3" devices="vehroute_39 tripinfo_39 emissions_39" vType="vecType" speedFactor="0.90" vaporized="">
        <emissions CO_abs="63443.381665" CO2_abs="2194704.380009" HC_abs="339.020487" PMx_abs="42.771256" NOx_abs="897.186316" fuel_abs="700025.708459" electricity_abs="0"/>
    </tripinfo>
    <tripinfo id="47" depart="18060.00" departLane="90077241_0" departPos="5.10" departSpeed="0.00" departDelay="0.00" arrival="18779.00" arrivalLane="90077241_0" arrivalPos="3225.35" arrivalSpeed="25.14" duration="719.00" routeLength="12170.03" waitingTime="47.00" waitingCount="2" stopTime="20.00" timeLoss="104.35" rerouteNo="7" devices="vehroute_47 tripinfo_47 emissions_47" vType="vecType" speedFactor="0.90" vaporized="">
        <emissions CO_abs="38020.506488" CO2_abs="2643788.212512" HC_abs="234.182825" PMx_abs="49.726917" NOx_abs="993.798106" fuel_abs="843249.241767" electricity_abs="0"/>
    </tripinfo>
    <tripinfo id="33" depart="18000.00" departLane="144489137#0_0" departPos="5.10" departSpeed="0.00" departDelay="0.00" arrival="18780.00" arrivalLane="144489137#0_0" arrivalPos="135.49" arrivalSpeed="12.73" duration="780.00" routeLength="3872.00" waitingTime="370.00" waitingCount="14" stopTime="20.00" timeLoss="467.29" rerouteNo="1" devices="vehroute_33 tripinfo_33 emissions_33" vType="vecType" speedFactor="1.17" vaporized="">
        <emissions CO_abs="79093.630675" CO2_abs="2111043.859605" HC_abs="408.320948" PMx_abs="42.957901" NOx_abs="898.178922" fuel_abs="673349.174939" electricity_abs="0"/>
    </tripinfo>
    <tripinfo id="82" depart="18123.00" departLane="-133781749_0" departPos="5.10" departSpeed="0.00" departDelay="3.00" arrival="18783.00" arrivalLane="-133781749_0" arrivalPos="138.68" arrivalSpeed="10.58" duration="660.00" routeLength="5499.56" waitingTime="106.00" waitingCount="9" stopTime="20.00" timeLoss="210.48" rerouteNo="1" devices="vehroute_82 tripinfo_82 emissions_82" vType="vecType" speedFactor="1.02" vaporized="">
        <emissions CO_abs="42312.727840" CO2_abs="1794511.632043" HC_abs="234.248279" PMx_abs="32.045752" NOx_abs="729.169293" fuel_abs="572376.218104" electricity_abs="0"/>
    </tripinfo>
    <tripinfo id="68" depart="18060.00" departLane="27167762_0" departPos="5.10" departSpeed="0.00" departDelay="0.00" arrival="18787.00" arrivalLane="27167762_0" arrivalPos="139.02" arrivalSpeed="23.07" duration="727.00" routeLength="12191.33" waitingTime="122.00" waitingCount="5" stopTime="0.00" timeLoss="193.46" rerouteNo="5" devices="vehroute_68 tripinfo_68 emissions_68" vType="vecType" speedFactor="1.04" vaporized="">
        <emissions CO_abs="61828.468214" CO2_abs="3148698.605624" HC_abs="358.502944" PMx_abs="66.677457" NOx_abs="1224.302311" fuel_abs="1004296.471679" electricity_abs="0"/>
    </tripinfo>
    <tripinfo id="27" depart="18000.00" departLane="-8916048_0" departPos="5.10" departSpeed="0.00" departDelay="0.00" arrival="18798.00" arrivalLane="-8916048_0" arrivalPos="126.72" arrivalSpeed="9.53" duration="798.00" routeLength="6742.86" waitingTime="108.00" waitingCount="4" stopTime="20.00" timeLoss="200.41" rerouteNo="1" devices="vehroute_27 tripinfo_27 emissions_27" vType="vecType" speedFactor="0.95" vaporized="">
        <emissions CO_abs="43702.222501" CO2_abs="1979102.105098" HC_abs="244.494508" PMx_abs="32.905641" NOx_abs="791.444471" fuel_abs="631253.667731" electricity_abs="0"/>
    </tripinfo>
    <tripinfo id="13" depart="18003.00" departLane="90077241_0" departPos="5.10" departSpeed="0.00" departDelay="3.00" arrival="18837.00" arrivalLane="90077241_0" arrivalPos="3225.35" arrivalSpeed="31.50" duration="834.00" routeLength="12752.38" waitingTime="214.00" waitingCount="7" stopTime="20.00" timeLoss="293.50" rerouteNo="1" devices="vehroute_13 tripinfo_13 emissions_13" vType="vecType" speedFactor="1.12" vaporized="">
        <emissions CO_abs="88428.708239" CO2_abs="3710685.768760" HC_abs="494.335599" PMx_abs="83.492992" NOx_abs="1473.248102" fuel_abs="1183550.137653" electricity_abs="0"/>
    </tripinfo>
    <tripinfo id="63" depart="18063.00" departLane="-204967525_0" departPos="5.10" departSpeed="0.00" departDelay="3.00" arrival="18839.00" arrivalLane="-204967525_1" arrivalPos="146.26" arrivalSpeed="10.04" duration="776.00" routeLength="4830.14" waitingTime="215.00" waitingCount="9" stopTime="20.00" timeLoss="318.16" rerouteNo="1" devices="vehroute_63 tripinfo_63 emissions_63" vType="vecType" speedFactor="0.99" vaporized="">
        <emissions CO_abs="57810.578174" CO2_abs="1852077.719278" HC_abs="306.036242" PMx_abs="33.725274" NOx_abs="766.566245" fuel_abs="590744.991032" electricity_abs="0"/>
    </tripinfo>
    <tripinfo id="53" depart="18060.00" departLane="-27029200#2_0" departPos="5.10" departSpeed="0.00" departDelay="0.00" arrival="18844.00" arrivalLane="-27029200#2_0" arrivalPos="66.62" arrivalSpeed="11.14" duration="784.00" routeLength="6523.22" waitingTime="180.00" waitingCount="8" stopTime="20.00" timeLoss="281.52" rerouteNo="2" devices="vehroute_53 tripinfo_53 emissions_53" vType="vecType" speedFactor="1.10" vaporized="">
        <emissions CO_abs="54893.402203" CO2_abs="2204034.612784" HC_abs="300.578715" PMx_abs="40.432799" NOx_abs="898.981835" fuel_abs="702998.262280" electricity_abs="0"/>
    </tripinfo>
    <tripinfo id="2" depart="18000.00" departLane="142972028#1_0" departPos="5.10" departSpeed="0.00" departDelay="0.00" arrival="18848.00" arrivalLane="142972028#1_0" arrivalPos="161.20" arrivalSpeed="10.42" duration="848.00" routeLength="6732.31" waitingTime="166.00" waitingCount="13" stopTime="20.00" timeLoss="289.95" rerouteNo="2" devices="vehroute_2 tripinfo_2 emissions_2" vType="vecType" speedFactor="1.01" vaporized="">
        <emissions CO_abs="55318.161785" CO2_abs="2224738.208383" HC_abs="302.898633" PMx_abs="39.119039" NOx_abs="900.613606" fuel_abs="709603.345520" electricity_abs="0"/>
    </tripinfo>
    <tripinfo id="84" depart="18123.00" departLane="90077241_0" departPos="5.10" departSpeed="0.00" departDelay="3.00" arrival="18854.00" arrivalLane="90077241_0" arrivalPos="3225.35" arrivalSpeed="32.72" duration="731.00" routeLength="12280.95" waitingTime="168.00" waitingCount="6" stopTime="20.00" timeLoss="235.63" rerouteNo="1" devices="vehroute_84 tripinfo_84 emissions_84" vType="vecType" speedFactor="1.15" vaporized="">
        <emissions CO_abs="80787.262110" CO2_abs="3473716.684247" HC_abs="453.757945" PMx_abs="79.758871" NOx_abs="1375.244852" fuel_abs="1107965.073111" electricity_abs="0"/>
    </tripinfo>
    <tripinfo id="24" depart="18003.00" departLane="123867455_0" departPos="5.10" departSpeed="0.00" departDelay="3.00" arrival="18860.00" arrivalLane="123867455_0" arrivalPos="904.85" arrivalSpeed="23.96" duration="857.00" routeLength="6219.34" waitingTime="219.00" waitingCount="10" stopTime="20.00" timeLoss="318.91" rerouteNo="2" devices="vehroute_24 tripinfo_24 emissions_24" vType="vecType" speedFactor="0.83" vaporized="">
        <emissions CO_abs="66799.394777" CO2_abs="2254092.136589" HC_abs="356.000223" PMx_abs="42.789747" NOx_abs="922.874592" fuel_abs="718969.946890" electricity_abs="0"/>
    </tripinfo>
    <tripinfo id="40" depart="18000.00" departLane="-206679802#4_0" departPos="5.10" departSpeed="0.00" departDelay="0.00" arrival="18865.00" arrivalLane="-206679802#4_0" arrivalPos="292.11" arrivalSpeed="10.55" duration="865.00" routeLength="6162.76" waitingTime="212.00" waitingCount="7" stopTime="20.00" timeLoss="309.76" rerouteNo="7" devices="vehroute_40 tripinfo_40 emissions_40" vType="vecType" speedFactor="1.03" vaporized="">
        <emissions CO_abs="58841.935950" CO2_abs="2154371.538671" HC_abs="317.727274" PMx_abs="38.313515" NOx_abs="883.350177" fuel_abs="687161.565150" electricity_abs="0"/>
    </tripinfo>
    <tripinfo id="64" depart="18060.00" departLane="28319343#2_0" departPos="5.10" departSpeed="0.00" departDelay="0.00" arrival="18872.00" arrivalLane="28319343#2_0" arrivalPos="90.58" arrivalSpeed="9.92" duration="812.00" routeLength="9974.14" waitingTime="217.00" waitingCount="8" stopTime="0.00" timeLoss="286.32" rerouteNo="1" devices="vehroute_64 tripinfo_64 emissions_64" vType="vecType" speedFactor="0.94" vaporized="">
        <emissions CO_abs="64939.616916" CO2_abs="2736913.562580" HC_abs="359.404429" PMx_abs="54.192351" NOx_abs="1076.242443" fuel_abs="872963.254044" electricity_abs="0"/>
    </tripinfo>
    <tripinfo id="0" depart="18000.00" departLane="84823308_0" departPos="5.10" departSpeed="0.00" departDelay="0.00" arrival="18885.00" arrivalLane="84823308_0" arrivalPos="275.63" arrivalSpeed="11.49" duration="885.00" routeLength="5975.03" waitingTime="267.00" waitingCount="8" stopTime="20.00" timeLoss="360.49" rerouteNo="7" devices="vehroute_0 tripinfo_0 emissions_0" vType="vecType" speedFactor="1.06" vaporized="">
        <emissions CO_abs="65565.780677" CO2_abs="2207143.399860" HC_abs="349.139025" PMx_abs="39.513473" NOx_abs="904.355539" fuel_abs="703996.984918" electricity_abs="0"/>
    </tripinfo>
    <tripinfo id="42" depart="18009.00" departLane="31129765_0" departPos="5.10" departSpeed="0.00" departDelay="9.00" arrival="18891.00" arrivalLane="31129765_0" arrivalPos="639.51" arrivalSpeed="23.39" duration="882.00" routeLength="7763.38" waitingTime="279.00" waitingCount="12" stopTime="20.00" timeLoss="393.76" rerouteNo="1" devices="vehroute_42 tripinfo_42 emissions_42" vType="vecType" speedFactor="1.09" vaporized="">
        <emissions CO_abs="78300.370585" CO2_abs="2835156.966141" HC_abs="423.186365" PMx_abs="57.593154" NOx_abs="1171.724833" fuel_abs="904300.994313" electricity_abs="0"/>
    </tripinfo>
    <tripinfo id="85" depart="18126.00" departLane="90077241_0" departPos="5.10" departSpeed="0.00" departDelay="6.00" arrival="18891.00" arrivalLane="90077241_0" arrivalPos="3225.35" arrivalSpeed="27.55" duration="765.00" routeLength="11984.76" waitingTime="150.00" waitingCount="8" stopTime="20.00" timeLoss="216.12" rerouteNo="1" devices="vehroute_85 tripinfo_85 emissions_85" vType="vecType" speedFactor="0.98" vaporized="">
        <emissions CO_abs="61972.993417" CO2_abs="3064287.756872" HC_abs="355.901459" PMx_abs="63.682977" NOx_abs="1191.725126" fuel_abs="977374.807002" electricity_abs="0"/>
    </tripinfo>
    <tripinfo id="29" depart="18000.00" departLane="-35977367#2_0" departPos="5.10" departSpeed="0.00" departDelay="0.00" arrival="18894.00" arrivalLane="-35977367#2_0" arrivalPos="431.73" arrivalSpeed="9.34" duration="894.00" routeLength="6070.29" waitingTime="197.00" waitingCount="8" stopTime="20.00" timeLoss="290.84" rerouteNo="3" devices="vehroute_29 tripinfo_29 emissions_29" vType="vecType" speedFactor="0.93" vaporized="">
        <emissions CO_abs="58473.215135" CO2_abs="2093830.933243" HC_abs="314.390293" PMx_abs="35.767536" NOx_abs="852.396418" fuel_abs="667853.627326" electricity_abs="0"/>
    </tripinfo>
    <tripinfo id="25" depart="18003.00" departLane="-23883761_0" departPos="5.10" departSpeed="0.00" departDelay="3.00" arrival="18906.00" arrivalLane="-23883761_0" arrivalPos="197.88" arrivalSpeed="8.56" duration="903.00" routeLength="5896.49" waitingTime="180.00" waitingCount="11" stopTime="20.00" timeLoss="278.41" rerouteNo="2" devices="vehroute_25 tripinfo_25 emissions_25" vType="vecType" speedFactor="0.87" vaporized="">
        <emissions CO_abs="57190.437693" CO2_abs="1971916.202798" HC_abs="305.631211" PMx_abs="33.564659" NOx_abs="803.952677" fuel_abs="628968.721976" electricity_abs="0"/>
    </tripinfo>
    <tripinfo id="10" depart="18000.00" departLane="90077241_0" departPos="5.10" departSpeed="0.00" departDelay="0.00" arrival="18908.00" arrivalLane="90077241_0" arrivalPos="3225.35" arrivalSpeed="31.58" duration="908.00" routeLength="12917.03" waitingTime="240.00" waitingCount="9" stopTime="20.00" timeLoss="338.79" rerouteNo="5" devices="vehroute_10 tripinfo_10 emissions_10" vType="vecType" speedFactor="1.09" vaporized="">
        <emissions CO_abs="91722.808901" CO2_abs="3802309.814424" HC_abs="510.899567" PMx_abs="83.826768" NOx_abs="1511.116870" fuel_abs="1212775.974801" electricity_abs="0"/>
    </tripinfo>
    <tripinfo id="99" depart="18180.00" departLane="-27029204_0" departPos="5.10" departSpeed="0.00" departDelay="0.00" arrival="18919.00" arrivalLane="-27029204_0" arrivalPos="195.60" arrivalSpeed="11.37" duration="739.00" routeLength="5700.35" waitingTime="212.00" waitingCount="9" stopTime="20.00" timeLoss="303.96" rerouteNo="2" devices="vehroute_99 tripinfo_99 emissions_99" vType="vecType" speedFactor="1.10" vaporized="">
        <emissions CO_abs="58145.524730" CO2_abs="2112103.006109" HC_abs="313.631461" PMx_abs="40.165444" NOx_abs="872.195351" fuel_abs="673677.571502" electricity_abs="0"/>
    </tripinfo>
    <tripinfo id="43" depart="18012.00" departLane="123867455_0" departPos="5.10" departSpeed="0.00" departDelay="12.00" arrival="18956.00" arrivalLane="123867455_0" arrivalPos="904.85" arrivalSpeed="28.92" duration="944.00" routeLength="8280.56" waitingTime="218.00" waitingCount="11" stopTime="20.00" timeLoss="351.72" rerouteNo="2" devices="vehroute_43 tripinfo_43 emissions_43" vType="vecType" speedFactor="1.04" vaporized="">
        <emissions CO_abs="70684.997027" CO2_abs="2818568.135336" HC_abs="387.883600" PMx_abs="53.669118" NOx_abs="1150.727899" fuel_abs="899008.670740" electricity_abs="0"/>
    </tripinfo>
    <tripinfo id="90" depart="18120.00" departLane="-254758120#3_0" departPos="5.10" departSpeed="0.00" departDelay="0.00" arrival="18956.00" arrivalLane="-254758120#3_0" arrivalPos="147.41" arrivalSpeed="10.56" duration="836.00" routeLength="5221.94" waitingTime="270.00" waitingCount="10" stopTime="20.00" timeLoss="356.52" rerouteNo="1" devices="vehroute_90 tripinfo_90 emissions_90" vType="vecType" speedFactor="1.02" vaporized="">
        <emissions CO_abs="64490.238864" CO2_abs="2010040.377593" HC_abs="340.025350" PMx_abs="36.635228" NOx_abs="829.803667" fuel_abs="641130.567032" electricity_abs="0"/>
    </tripinfo>
    <tripinfo id="3" depart="18000.00" departLane="-133781749_0" departPos="5.10" departSpeed="0.00" departDelay="0.00" arrival="18958.00" arrivalLane="-133781749_0" arrivalPos="138.68" arrivalSpeed="10.85" duration="958.00" routeLength="7501.04" waitingTime="237.00" waitingCount="15" stopTime="20.00" timeLoss="369.35" rerouteNo="1" devices="vehroute_3 tripinfo_3 emissions_3" vType="vecType" speedFactor="1.08" vaporized="">
        <emissions CO_abs="70766.973051" CO2_abs="2682185.094743" HC_abs="384.416274" PMx_abs="50.100279" NOx_abs="1104.878207" fuel_abs="855510.178812" electricity_abs="0"/>
    </tripinfo>
    <tripinfo id="75" depart="18120.00" departLane="-254297762#2_0" departPos="5.10" departSpeed="0.00" departDelay="0.00" arrival="18961.00" arrivalLane="-254297762#2_0" arrivalPos="291.17" arrivalSpeed="10.84" duration="841.00" routeLength="5758.38" waitingTime="192.00" waitingCount="11" stopTime="20.00" timeLoss="297.94" rerouteNo="2" devices="vehroute_75 tripinfo_75 emissions_75" vType="vecType" speedFactor="0.98" vaporized="">
        <emissions CO_abs="56797.110616" CO2_abs="2059278.870452" HC_abs="306.147793" PMx_abs="36.018727" NOx_abs="842.322568" fuel_abs="656831.558487" electricity_abs="0"/>
    </tripinfo>
    <tripinfo id="9" depart="18000.00" departLane="23959829#0_0" departPos="5.10" departSpeed="0.00" departDelay="0.00" arrival="18966.00" arrivalLane="23959829#0_0" arrivalPos="45.86" arrivalSpeed="9.27" duration="966.00" routeLength="6745.88" waitingTime="197.00" waitingCount="9" stopTime="20.00" timeLoss="307.39" rerouteNo="2" devices="vehroute_9 tripinfo_9 emissions_9" vType="vecType" speedFactor="0.86" vaporized="">
        <emissions CO_abs="63223.584563" CO2_abs="2272265.052595" HC_abs="339.541102" PMx_abs="39.252617" NOx_abs="922.997758" fuel_abs="724766.937665" electricity_abs="0"/>
    </tripinfo>
    <tripinfo id="56" depart="18066.00" departLane="31129765_0" departPos="5.10" departSpeed="0.00" departDelay="6.00" arrival="18969.00" arrivalLane="31129765_0" arrivalPos="639.51" arrivalSpeed="19.99" duration="903.00" routeLength="13447.31" waitingTime="168.00" waitingCount="5" stopTime="0.00" timeLoss="238.13" rerouteNo="4" devices="vehroute_56 tripinfo_56 emissions_56" vType="vecType" speedFactor="0.90" vaporized="">
        <emissions CO_abs="60894.619098" CO2_abs="3247033.662709" HC_abs="352.412896" PMx_abs="62.091769" NOx_abs="1244.084615" fuel_abs="1035663.981212" electricity_abs="0"/>
    </tripinfo>
    <tripinfo id="73" depart="18120.00" departLane="-204967525_0" departPos="5.10" departSpeed="0.00" departDelay="0.00" arrival="18969.00" arrivalLane="-204967525_1" arrivalPos="146.26" arrivalSpeed="11.09" duration="849.00" routeLength="5090.57" waitingTime="295.00" waitingCount="9" stopTime="20.00" timeLoss="397.40" rerouteNo="1" devices="vehroute_73 tripinfo_73 emissions_73" vType="vecType" speedFactor="1.06" vaporized="">
        <emissions CO_abs="71502.364168" CO2_abs="2213974.854656" HC_abs="376.941750" PMx_abs="42.531210" NOx_abs="929.231429" fuel_abs="706176.053145" electricity_abs="0"/>
    </tripinfo>
    <tripinfo id="41" depart="18003.00" departLane="144489137#0_0" departPos="5.10" departSpeed="0.00" departDelay="3.00" arrival="18974.00" arrivalLane="144489137#0_0" arrivalPos="135.49" arrivalSpeed="10.18" duration="971.00" routeLength="5119.82" waitingTime="367.00" waitingCount="16" stopTime="20.00" timeLoss="475.64" rerouteNo="1" devices="vehroute_41 tripinfo_41 emissions_41" vType="vecType" speedFactor="0.96" vaporized="">
        <emissions CO_abs="84774.002624" CO2_abs="2335036.875301" HC_abs="440.056977" PMx_abs="44.995691" NOx_abs="982.903216" fuel_abs="744795.982181" electricity_abs="0"/>
    </tripinfo>