<?xml version="1.0" encoding="UTF-8"?>

<!-- generated on 2022-12-09 14:13:35 by Eclipse SUMO sumo Version 1.14.1
<configuration xmlns:xsi="http://www.w3.org/2001/XMLSchema-instance" xsi:noNamespaceSchemaLocation="http://sumo.dlr.de/xsd/sumoConfiguration.xsd">

    <input>
        <net-file value="san_francisco.net.xml"/>
        <route-files value="san_francisco.rou.xml"/>
        <additional-files value="san_francisco.poly.xml,parking_capacity_100%25/off_parking_100%25.add.xml,parking_capacity_100%25/on_parking_100%25.add.xml"/>
    </input>

    <output>
        <emission-output value="output/dynamic_area/100%25/emission.xml"/>
        <summary-output value="output/dynamic_area/100%25/summary.xml"/>
        <tripinfo-output value="output/dynamic_area/100%25/tripinfo.xml"/>
        <vehroute-output value="output/dynamic_area/100%25/vehroute.xml"/>
        <stop-output value="output/dynamic_area/100%25/stops.xml"/>
        <collision-output value="output/dynamic_area/100%25/collision.xml"/>
        <statistic-output value="output/dynamic_area/100%25/statistic.xml"/>
    </output>

    <time>
        <step-length value="1"/>
    </time>

    <processing>
        <ignore-route-errors value="false"/>
        <time-to-teleport value="-1"/>
    </processing>

    <report>
        <verbose value="true"/>
        <xml-validation value="never"/>
    </report>

    <traci_server>
        <remote-port value="64864"/>
    </traci_server>

    <gui_only>
        <gui-settings-file value="gui-settings.cfg"/>
        <start value="true"/>
    </gui_only>

</configuration>
-->

<tripinfos xmlns:xsi="http://www.w3.org/2001/XMLSchema-instance" xsi:noNamespaceSchemaLocation="http://sumo.dlr.de/xsd/tripinfo_file.xsd">
    <tripinfo id="30" depart="18000.00" departLane="-91181760#0_0" departPos="5.10" departSpeed="0.00" departDelay="0.00" arrival="18341.00" arrivalLane="-91181760#0_0" arrivalPos="79.70" arrivalSpeed="12.69" duration="341.00" routeLength="3660.42" waitingTime="1.00" waitingCount="1" stopTime="20.00" timeLoss="42.60" rerouteNo="1" devices="vehroute_30 tripinfo_30 emissions_30" vType="vecType" speedFactor="1.18" vaporized="">
        <emissions CO_abs="12153.914651" CO2_abs="951253.699086" HC_abs="76.716451" PMx_abs="15.299395" NOx_abs="376.147271" fuel_abs="303406.490117" electricity_abs="0"/>
    </tripinfo>
    <tripinfo id="1" depart="18000.00" departLane="31129765_0" departPos="5.10" departSpeed="0.00" departDelay="0.00" arrival="18353.00" arrivalLane="31129765_0" arrivalPos="639.51" arrivalSpeed="19.99" duration="353.00" routeLength="4341.32" waitingTime="21.00" waitingCount="2" stopTime="20.00" timeLoss="64.91" rerouteNo="1" devices="vehroute_1 tripinfo_1 emissions_1" vType="vecType" speedFactor="0.94" vaporized="">
        <emissions CO_abs="18431.970283" CO2_abs="1155961.468541" HC_abs="110.226904" PMx_abs="20.944721" NOx_abs="455.605128" fuel_abs="368699.630975" electricity_abs="0"/>
    </tripinfo>
    <tripinfo id="45" depart="18060.00" departLane="31129765_0" departPos="5.10" departSpeed="0.00" departDelay="0.00" arrival="18382.00" arrivalLane="31129765_0" arrivalPos="639.51" arrivalSpeed="23.54" duration="322.00" routeLength="4234.28" waitingTime="40.00" waitingCount="1" stopTime="20.00" timeLoss="79.20" rerouteNo="1" devices="vehroute_45 tripinfo_45 emissions_45" vType="vecType" speedFactor="1.09" vaporized="">
        <emissions CO_abs="23201.308887" CO2_abs="1287045.586522" HC_abs="136.026430" PMx_abs="25.951942" NOx_abs="520.566797" fuel_abs="410508.793664" electricity_abs="0"/>
    </tripinfo>
    <tripinfo id="60" depart="18060.00" departLane="8916792_0" departPos="5.10" departSpeed="0.00" departDelay="0.00" arrival="18488.00" arrivalLane="8916792_0" arrivalPos="615.11" arrivalSpeed="11.27" duration="428.00" routeLength="3743.73" waitingTime="55.00" waitingCount="3" stopTime="20.00" timeLoss="97.83" rerouteNo="1" devices="vehroute_60 tripinfo_60 emissions_60" vType="vecType" speedFactor="1.08" vaporized="">
        <emissions CO_abs="19599.413282" CO2_abs="982386.671932" HC_abs="111.479233" PMx_abs="15.184078" NOx_abs="385.030644" fuel_abs="313341.736390" electricity_abs="0"/>
    </tripinfo>
    <tripinfo id="74" depart="18120.00" departLane="144489137#0_0" departPos="5.10" departSpeed="0.00" departDelay="0.00" arrival="18541.00" arrivalLane="144489137#0_0" arrivalPos="135.49" arrivalSpeed="10.66" duration="421.00" routeLength="2278.79" waitingTime="145.00" waitingCount="6" stopTime="20.00" timeLoss="190.25" rerouteNo="2" devices="vehroute_74 tripinfo_74 emissions_74" vType="vecType" speedFactor="0.96" vaporized="">
        <emissions CO_abs="35293.424443" CO2_abs="1026080.917368" HC_abs="184.452627" PMx_abs="19.551559" NOx_abs="430.465343" fuel_abs="327283.318150" electricity_abs="0"/>
    </tripinfo>
    <tripinfo id="76" depart="18120.00" departLane="225806031#0_0" departPos="5.10" departSpeed="0.00" departDelay="0.00" arrival="18576.00" arrivalLane="225806031#0_0" arrivalPos="142.16" arrivalSpeed="11.40" duration="456.00" routeLength="3181.76" waitingTime="110.00" waitingCount="4" stopTime="20.00" timeLoss="161.91" rerouteNo="1" devices="vehroute_76 tripinfo_76 emissions_76" vType="vecType" speedFactor="1.03" vaporized="">
        <emissions CO_abs="30911.343214" CO2_abs="1131811.117018" HC_abs="166.743560" PMx_abs="19.811943" NOx_abs="461.225711" fuel_abs="361004.579871" electricity_abs="0"/>
    </tripinfo>
    <tripinfo id="28" depart="18009.00" departLane="90077241_0" departPos="5.10" departSpeed="0.00" departDelay="9.00" arrival="18595.00" arrivalLane="90077241_0" arrivalPos="3225.35" arrivalSpeed="32.48" duration="586.00" routeLength="11976.91" waitingTime="66.00" waitingCount="2" stopTime="20.00" timeLoss="131.52" rerouteNo="2" devices="vehroute_28 tripinfo_28 emissions_28" vType="vecType" speedFactor="1.13" vaporized="">
        <emissions CO_abs="61578.585938" CO2_abs="3143801.485426" HC_abs="359.186553" PMx_abs="72.182543" NOx_abs="1227.919828" fuel_abs="1002730.446557" electricity_abs="0"/>
    </tripinfo>
    <tripinfo id="35" depart="18000.00" departLane="191296172#0_0" departPos="5.10" departSpeed="0.00" departDelay="0.00" arrival="18610.00" arrivalLane="-47108420#4_0" arrivalPos="5.44" arrivalSpeed="10.78" duration="610.00" routeLength="4097.72" waitingTime="183.00" waitingCount="7" stopTime="0.00" timeLoss="250.50" rerouteNo="1" devices="vehroute_35 tripinfo_35 emissions_35" vType="vecType" speedFactor="1.02" vaporized="">
        <emissions CO_abs="45999.494711" CO2_abs="1504616.152965" HC_abs="244.114601" PMx_abs="27.020875" NOx_abs="618.295221" fuel_abs="479917.460387" electricity_abs="0"/>
    </tripinfo>
    <tripinfo id="93" depart="18120.00" departLane="-254758121#2_0" departPos="5.10" departSpeed="0.00" departDelay="0.00" arrival="18663.00" arrivalLane="-254758121#2_0" arrivalPos="99.35" arrivalSpeed="9.14" duration="543.00" routeLength="3841.81" waitingTime="95.00" waitingCount="4" stopTime="20.00" timeLoss="149.83" rerouteNo="3" devices="vehroute_93 tripinfo_93 emissions_93" vType="vecType" speedFactor="0.92" vaporized="">
        <emissions CO_abs="32146.040886" CO2_abs="1251452.655856" HC_abs="175.202492" PMx_abs="21.275662" NOx_abs="509.193025" fuel_abs="399164.827017" electricity_abs="0"/>
    </tripinfo>
    <tripinfo id="49" depart="18063.00" departLane="31129765_0" departPos="5.10" departSpeed="0.00" departDelay="3.00" arrival="18664.00" arrivalLane="31129765_0" arrivalPos="639.51" arrivalSpeed="18.71" duration="601.00" routeLength="12944.78" waitingTime="0.00" waitingCount="0" stopTime="20.00" timeLoss="35.28" rerouteNo="1" devices="vehroute_49 tripinfo_49 emissions_49" vType="vecType" speedFactor="0.85" vaporized="">
        <emissions CO_abs="23949.927009" CO2_abs="2484224.501716" HC_abs="164.919788" PMx_abs="45.600197" NOx_abs="907.528792" fuel_abs="792350.106920" electricity_abs="0"/>
    </tripinfo>
    <tripinfo id="16" depart="18006.00" departLane="90077241_0" departPos="5.10" departSpeed="0.00" departDelay="6.00" arrival="18688.00" arrivalLane="90077241_0" arrivalPos="3225.35" arrivalSpeed="24.49" duration="682.00" routeLength="11625.26" waitingTime="81.00" waitingCount="3" stopTime="20.00" timeLoss="137.59" rerouteNo="1" devices="vehroute_16 tripinfo_16 emissions_16" vType="vecType" speedFactor="0.88" vaporized="">
        <emissions CO_abs="41736.527790" CO2_abs="2633570.534253" HC_abs="250.240653" PMx_abs="50.798505" NOx_abs="999.602563" fuel_abs="839990.838407" electricity_abs="0"/>
    </tripinfo>
    <tripinfo id="36" depart="18009.00" departLane="123867455_0" departPos="5.10" departSpeed="0.00" departDelay="9.00" arrival="18701.00" arrivalLane="123867455_0" arrivalPos="904.85" arrivalSpeed="27.48" duration="692.00" routeLength="5347.03" waitingTime="256.00" waitingCount="7" stopTime="20.00" timeLoss="339.23" rerouteNo="2" devices="vehroute_36 tripinfo_36 emissions_36" vType="vecType" speedFactor="0.97" vaporized="">
        <emissions CO_abs="65374.160223" CO2_abs="2125521.753303" HC_abs="347.663232" PMx_abs="43.507686" NOx_abs="877.712227" fuel_abs="677959.995556" electricity_abs="0"/>
    </tripinfo>
    <tripinfo id="21" depart="18000.00" departLane="27167762_0" departPos="5.10" departSpeed="0.00" departDelay="0.00" arrival="18709.00" arrivalLane="27167762_0" arrivalPos="139.02" arrivalSpeed="21.33" duration="709.00" routeLength="12026.47" waitingTime="115.00" waitingCount="6" stopTime="0.00" timeLoss="175.01" rerouteNo="4" devices="vehroute_21 tripinfo_21 emissions_21" vType="vecType" speedFactor="1.01" vaporized="">
        <emissions CO_abs="56812.625407" CO2_abs="3009790.267387" HC_abs="331.872360" PMx_abs="62.443692" NOx_abs="1162.574235" fuel_abs="959990.723334" electricity_abs="0"/>
    </tripinfo>
    <tripinfo id="31" depart="18006.00" departLane="123867455_0" departPos="5.10" departSpeed="0.00" departDelay="6.00" arrival="18724.00" arrivalLane="123867455_0" arrivalPos="904.85" arrivalSpeed="33.29" duration="718.00" routeLength="7632.90" waitingTime="134.00" waitingCount="8" stopTime="20.00" timeLoss="233.23" rerouteNo="1" devices="vehroute_31 tripinfo_31 emissions_31" vType="vecType" speedFactor="1.15" vaporized="">
        <emissions CO_abs="50699.057038" CO2_abs="2338149.564958" HC_abs="285.440732" PMx_abs="45.124277" NOx_abs="946.911109" fuel_abs="745769.769329" electricity_abs="0"/>
    </tripinfo>
    <tripinfo id="15" depart="18000.00" departLane="-24310636#2_0" departPos="5.10" departSpeed="0.00" departDelay="0.00" arrival="18754.00" arrivalLane="-24310636#2_1" arrivalPos="108.36" arrivalSpeed="9.81" duration="754.00" routeLength="6010.81" waitingTime="132.00" waitingCount="7" stopTime="20.00" timeLoss="213.66" rerouteNo="1" devices="vehroute_15 tripinfo_15 emissions_15" vType="vecType" speedFactor="0.93" vaporized="">
        <emissions CO_abs="45126.595241" CO2_abs="1841001.293788" HC_abs="247.771778" PMx_abs="31.734795" NOx_abs="742.636894" fuel_abs="587206.681698" electricity_abs="0"/>
    </tripinfo>
    <tripinfo id="20" depart="18000.00" departLane="123867455_0" departPos="5.10" departSpeed="0.00" departDelay="0.00" arrival="18759.00" arrivalLane="123867455_0" arrivalPos="904.85" arrivalSpeed="28.32" duration="759.00" routeLength="6719.97" waitingTime="210.00" waitingCount="7" stopTime="20.00" timeLoss="293.08" rerouteNo="3" devices="vehroute_20 tripinfo_20 emissions_20" vType="vecType" speedFactor="1.02" vaporized="">
        <emissions CO_abs="60057.633678" CO2_abs="2310807.323904" HC_abs="327.567217" PMx_abs="44.232202" NOx_abs="937.340969" fuel_abs="737055.219940" electricity_abs="0"/>
    </tripinfo>
    <tripinfo id="39" depart="18006.00" departLane="31129765_0" departPos="5.10" departSpeed="0.00" departDelay="6.00" arrival="18763.00" arrivalLane="31129765_0" arrivalPos="639.51" arrivalSpeed="19.75" duration="757.00" routeLength="6254.53" waitingTime="246.00" waitingCount="7" stopTime="20.00" timeLoss="320.90" rerouteNo="3" devices="vehroute_39 tripinfo_39 emissions_39" vType="vecType" speedFactor="0.90" vaporized="">
        <emissions CO_abs="63349.121160" CO2_abs="2197456.436653" HC_abs="339.124560" PMx_abs="42.921506" NOx_abs="900.298035" fuel_abs="700903.331212" electricity_abs="0"/>
    </tripinfo>
    <tripinfo id="47" depart="18060.00" departLane="90077241_0" departPos="5.10" departSpeed="0.00" departDelay="0.00" arrival="18770.00" arrivalLane="90077241_0" arrivalPos="3225.35" arrivalSpeed="25.88" duration="710.00" routeLength="12027.49" waitingTime="51.00" waitingCount="2" stopTime="20.00" timeLoss="112.96" rerouteNo="4" devices="vehroute_47 tripinfo_47 emissions_47" vType="vecType" speedFactor="0.90" vaporized="">
        <emissions CO_abs="40048.656702" CO2_abs="2692207.539296" HC_abs="245.333788" PMx_abs="51.558640" NOx_abs="1021.734529" fuel_abs="858692.478183" electricity_abs="0"/>
    </tripinfo>
    <tripinfo id="33" depart="18000.00" departLane="144489137#0_0" departPos="5.10" departSpeed="0.00" departDelay="0.00" arrival="18781.00" arrivalLane="144489137#0_0" arrivalPos="135.49" arrivalSpeed="12.90" duration="781.00" routeLength="3872.00" waitingTime="366.00" waitingCount="14" stopTime="20.00" timeLoss="467.63" rerouteNo="1" devices="vehroute_33 tripinfo_33 emissions_33" vType="vecType" speedFactor="1.17" vaporized="">
        <emissions CO_abs="79181.239958" CO2_abs="2110666.439439" HC_abs="408.914946" PMx_abs="43.031135" NOx_abs="899.227426" fuel_abs="673228.725587" electricity_abs="0"/>
    </tripinfo>
    <tripinfo id="82" depart="18123.00" departLane="-133781749_0" departPos="5.10" departSpeed="0.00" departDelay="3.00" arrival="18784.00" arrivalLane="-133781749_0" arrivalPos="138.68" arrivalSpeed="10.23" duration="661.00" routeLength="5499.56" waitingTime="108.00" waitingCount="9" stopTime="20.00" timeLoss="211.85" rerouteNo="1" devices="vehroute_82 tripinfo_82 emissions_82" vType="vecType" speedFactor="1.02" vaporized="">
        <emissions CO_abs="42856.012199" CO2_abs="1801482.768735" HC_abs="236.758592" PMx_abs="32.273302" NOx_abs="732.236866" fuel_abs="574599.834296" electricity_abs="0"/>
    </tripinfo>
    <tripinfo id="68" depart="18060.00" departLane="27167762_0" departPos="5.10" departSpeed="0.00" departDelay="0.00" arrival="18786.00" arrivalLane="27167762_0" arrivalPos="139.02" arrivalSpeed="21.90" duration="726.00" routeLength="12191.33" waitingTime="124.00" waitingCount="5" stopTime="0.00" timeLoss="193.26" rerouteNo="5" devices="vehroute_68 tripinfo_68 emissions_68" vType="vecType" speedFactor="1.04" vaporized="">
        <emissions CO_abs="61891.486085" CO2_abs="3137192.182205" HC_abs="358.436063" PMx_abs="66.320166" NOx_abs="1219.402450" fuel_abs="1000626.680207" electricity_abs="0"/>
    </tripinfo>
    <tripinfo id="27" depart="18000.00" departLane="-8916048_0" departPos="5.10" departSpeed="0.00" departDelay="0.00" arrival="18799.00" arrivalLane="-8916048_0" arrivalPos="126.72" arrivalSpeed="9.31" duration="799.00" routeLength="6742.86" waitingTime="109.00" waitingCount="4" stopTime="20.00" timeLoss="201.08" rerouteNo="1" devices="vehroute_27 tripinfo_27 emissions_27" vType="vecType" speedFactor="0.95" vaporized="">
        <emissions CO_abs="43618.610482" CO2_abs="1978218.811645" HC_abs="244.085841" PMx_abs="32.882851" NOx_abs="790.471940" fuel_abs="630971.945381" electricity_abs="0"/>
    </tripinfo>
    <tripinfo id="13" depart="18003.00" departLane="90077241_0" departPos="5.10" departSpeed="0.00" departDelay="3.00" arrival="18836.00" arrivalLane="90077241_0" arrivalPos="3225.35" arrivalSpeed="31.48" duration="833.00" routeLength="12752.38" waitingTime="213.00" waitingCount="7" stopTime="20.00" timeLoss="292.77" rerouteNo="1" devices="vehroute_13 tripinfo_13 emissions_13" vType="vecType" speedFactor="1.12" vaporized="">
        <emissions CO_abs="88709.460742" CO2_abs="3713936.748169" HC_abs="495.666478" PMx_abs="83.934906" NOx_abs="1484.416420" fuel_abs="1184586.200554" electricity_abs="0"/>
    </tripinfo>
    <tripinfo id="63" depart="18063.00" departLane="-204967525_0" departPos="5.10" departSpeed="0.00" departDelay="3.00" arrival="18839.00" arrivalLane="-204967525_1" arrivalPos="146.26" arrivalSpeed="10.94" duration="776.00" routeLength="4830.14" waitingTime="215.00" waitingCount="9" stopTime="20.00" timeLoss="317.32" rerouteNo="1" devices="vehroute_63 tripinfo_63 emissions_63" vType="vecType" speedFactor="0.99" vaporized="">
        <emissions CO_abs="57739.524455" CO2_abs="1847030.161860" HC_abs="305.553349" PMx_abs="33.399762" NOx_abs="762.698697" fuel_abs="589135.350738" electricity_abs="0"/>
    </tripinfo>
    <tripinfo id="2" depart="18000.00" departLane="142972028#1_0" departPos="5.10" departSpeed="0.00" departDelay="0.00" arrival="18849.00" arrivalLane="142972028#1_0" arrivalPos="161.20" arrivalSpeed="10.94" duration="849.00" routeLength="6732.31" waitingTime="168.00" waitingCount="10" stopTime="20.00" timeLoss="290.74" rerouteNo="2" devices="vehroute_2 tripinfo_2 emissions_2" vType="vecType" speedFactor="1.01" vaporized="">
        <emissions CO_abs="55479.741860" CO2_abs="2216834.043445" HC_abs="303.602723" PMx_abs="39.213246" NOx_abs="900.581677" fuel_abs="707082.100953" electricity_abs="0"/>
    </tripinfo>
    <tripinfo id="84" depart="18123.00" departLane="90077241_0" departPos="5.10" departSpeed="0.00" departDelay="3.00" arrival="18849.00" arrivalLane="90077241_0" arrivalPos="3225.35" arrivalSpeed="32.84" duration="726.00" routeLength="12280.95" waitingTime="165.00" waitingCount="5" stopTime="20.00" timeLoss="230.52" rerouteNo="1" devices="vehroute_84 tripinfo_84 emissions_84" vType="vecType" speedFactor="1.15" vaporized="">
        <emissions CO_abs="79505.943051" CO2_abs="3444014.161743" HC_abs="447.391361" PMx_abs="78.975312" NOx_abs="1356.256454" fuel_abs="1098491.505349" electricity_abs="0"/>
    </tripinfo>
    <tripinfo id="24" depart="18003.00" departLane="123867455_0" departPos="5.10" departSpeed="0.00" departDelay="3.00" arrival="18859.00" arrivalLane="123867455_0" arrivalPos="904.85" arrivalSpeed="22.96" duration="856.00" routeLength="6219.34" waitingTime="214.00" waitingCount="10" stopTime="20.00" timeLoss="318.44" rerouteNo="2" devices="vehroute_24 tripinfo_24 emissions_24" vType="vecType" speedFactor="0.83" vaporized="">
        <emissions CO_abs="66090.216732" CO2_abs="2225779.154440" HC_abs="351.958594" PMx_abs="42.164963" NOx_abs="910.189288" fuel_abs="709939.323118" electricity_abs="0"/>
    </tripinfo>
    <tripinfo id="53" depart="18060.00" departLane="-27029200#2_0" departPos="5.10" departSpeed="0.00" departDelay="0.00" arrival="18860.00" arrivalLane="-27029200#2_0" arrivalPos="66.62" arrivalSpeed="11.37" duration="800.00" routeLength="6523.22" waitingTime="203.00" waitingCount="10" stopTime="20.00" timeLoss="298.56" rerouteNo="2" devices="vehroute_53 tripinfo_53 emissions_53" vType="vecType" speedFactor="1.10" vaporized="">
        <emissions CO_abs="58107.460466" CO2_abs="2238708.352536" HC_abs="316.096846" PMx_abs="41.493503" NOx_abs="916.270663" fuel_abs="714058.788399" electricity_abs="0"/>
    </tripinfo>
    <tripinfo id="64" depart="18060.00" departLane="28319343#2_0" departPos="5.10" departSpeed="0.00" departDelay="0.00" arrival="18872.00" arrivalLane="28319343#2_0" arrivalPos="90.58" arrivalSpeed="9.26" duration="812.00" routeLength="9974.14" waitingTime="216.00" waitingCount="8" stopTime="0.00" timeLoss="286.20" rerouteNo="1" devices="vehroute_64 tripinfo_64 emissions_64" vType="vecType" speedFactor="0.94" vaporized="">
        <emissions CO_abs="65207.470565" CO2_abs="2744047.389280" HC_abs="361.456587" PMx_abs="54.922499" NOx_abs="1084.266007" fuel_abs="875238.101475" electricity_abs="0"/>
    </tripinfo>
    <tripinfo id="73" depart="18120.00" departLane="-204967525_0" departPos="5.10" departSpeed="0.00" departDelay="0.00" arrival="18879.00" arrivalLane="-204967525_1" arrivalPos="146.26" arrivalSpeed="11.71" duration="759.00" routeLength="5090.57" waitingTime="212.00" waitingCount="8" stopTime="20.00" timeLoss="307.15" rerouteNo="1" devices="vehroute_73 tripinfo_73 emissions_73" vType="vecType" speedFactor="1.06" vaporized="">
        <emissions CO_abs="57468.165743" CO2_abs="1993481.625769" HC_abs="307.811993" PMx_abs="36.959887" NOx_abs="827.304547" fuel_abs="635844.058731" electricity_abs="0"/>
    </tripinfo>
    <tripinfo id="0" depart="18000.00" departLane="84823308_0" departPos="5.10" departSpeed="0.00" departDelay="0.00" arrival="18885.00" arrivalLane="84823308_0" arrivalPos="275.63" arrivalSpeed="10.68" duration="885.00" routeLength="6405.40" waitingTime="206.00" waitingCount="8" stopTime="20.00" timeLoss="324.15" rerouteNo="26" devices="vehroute_0 tripinfo_0 emissions_0" vType="vecType" speedFactor="1.06" vaporized="">
        <emissions CO_abs="60336.295224" CO2_abs="2277723.324440" HC_abs="327.202500" PMx_abs="40.285175" NOx_abs="932.081458" fuel_abs="726505.099277" electricity_abs="0"/>
    </tripinfo>
    <tripinfo id="79" depart="18120.00" departLane="-24310636#2_0" departPos="5.10" departSpeed="0.00" departDelay="0.00" arrival="18886.00" arrivalLane="-24310636#2_1" arrivalPos="108.36" arrivalSpeed="10.87" duration="766.00" routeLength="6581.41" waitingTime="156.00" waitingCount="7" stopTime="20.00" timeLoss="254.91" rerouteNo="1" devices="vehroute_79 tripinfo_79 emissions_79" vType="vecType" speedFactor="1.09" vaporized="">
        <emissions CO_abs="50561.056996" CO2_abs="2160512.977533" HC_abs="280.222275" PMx_abs="39.020131" NOx_abs="879.019442" fuel_abs="689115.170640" electricity_abs="0"/>
    </tripinfo>
    <tripinfo id="85" depart="18126.00" departLane="90077241_0" departPos="5.10" departSpeed="0.00" departDelay="6.00" arrival="18887.00" arrivalLane="90077241_0" arrivalPos="3225.35" arrivalSpeed="27.88" duration="761.00" routeLength="11984.76" waitingTime="143.00" waitingCount="7" stopTime="20.00" timeLoss="211.89" rerouteNo="1" devices="vehroute_85 tripinfo_85 emissions_85" vType="vecType" speedFactor="0.98" vaporized="">
        <emissions CO_abs="60311.739081" CO2_abs="3028611.367435" HC_abs="347.522253" PMx_abs="62.852748" NOx_abs="1173.331602" fuel_abs="965995.380622" electricity_abs="0"/>
    </tripinfo>
    <tripinfo id="42" depart="18009.00" departLane="31129765_0" departPos="5.10" departSpeed="0.00" departDelay="9.00" arrival="18891.00" arrivalLane="31129765_0" arrivalPos="639.51" arrivalSpeed="23.82" duration="882.00" routeLength="7763.38" waitingTime="281.00" waitingCount="12" stopTime="20.00" timeLoss="393.60" rerouteNo="1" devices="vehroute_42 tripinfo_42 emissions_42" vType="vecType" speedFactor="1.09" vaporized="">
        <emissions CO_abs="78515.156181" CO2_abs="2854879.118935" HC_abs="424.549386" PMx_abs="57.881496" NOx_abs="1178.064632" fuel_abs="910591.557861" electricity_abs="0"/>
    </tripinfo>
    <tripinfo id="29" depart="18000.00" departLane="-35977367#2_0" departPos="5.10" departSpeed="0.00" departDelay="0.00" arrival="18896.00" arrivalLane="-35977367#2_0" arrivalPos="431.73" arrivalSpeed="9.29" duration="896.00" routeLength="6070.29" waitingTime="196.00" waitingCount="7" stopTime="20.00" timeLoss="292.18" rerouteNo="3" devices="vehroute_29 tripinfo_29 emissions_29" vType="vecType" speedFactor="0.93" vaporized="">
        <emissions CO_abs="58626.880065" CO2_abs="2098474.743126" HC_abs="315.232955" PMx_abs="36.059337" NOx_abs="855.712929" fuel_abs="669334.606058" electricity_abs="0"/>
    </tripinfo>
    <tripinfo id="10" depart="18000.00" departLane="90077241_0" departPos="5.10" departSpeed="0.00" departDelay="0.00" arrival="18907.00" arrivalLane="90077241_0" arrivalPos="3225.35" arrivalSpeed="30.81" duration="907.00" routeLength="12917.03" waitingTime="243.00" waitingCount="9" stopTime="20.00" timeLoss="337.04" rerouteNo="5" devices="vehroute_10 tripinfo_10 emissions_10" vType="vecType" speedFactor="1.09" vaporized="">
        <emissions CO_abs="91772.162224" CO2_abs="3787356.759251" HC_abs="510.712381" PMx_abs="83.624577" NOx_abs="1507.733180" fuel_abs="1208006.552443" electricity_abs="0"/>
    </tripinfo>
    <tripinfo id="25" depart="18003.00" departLane="-23883761_0" departPos="5.10" departSpeed="0.00" departDelay="3.00" arrival="18908.00" arrivalLane="-23883761_0" arrivalPos="197.88" arrivalSpeed="9.26" duration="905.00" routeLength="5896.49" waitingTime="178.00" waitingCount="11" stopTime="20.00" timeLoss="279.66" rerouteNo="2" devices="vehroute_25 tripinfo_25 emissions_25" vType="vecType" speedFactor="0.87" vaporized="">
        <emissions CO_abs="57277.676047" CO2_abs="1981806.840469" HC_abs="306.208921" PMx_abs="33.463038" NOx_abs="806.241281" fuel_abs="632123.651510" electricity_abs="0"/>
    </tripinfo>
    <tripinfo id="99" depart="18180.00" departLane="-27029204_0" departPos="5.10" departSpeed="0.00" departDelay="0.00" arrival="18918.00" arrivalLane="-27029204_0" arrivalPos="195.60" arrivalSpeed="12.20" duration="738.00" routeLength="5700.35" waitingTime="214.00" waitingCount="9" stopTime="20.00" timeLoss="303.32" rerouteNo="2" devices="vehroute_99 tripinfo_99 emissions_99" vType="vecType" speedFactor="1.10" vaporized="">
        <emissions CO_abs="57650.794376" CO2_abs="2096592.001954" HC_abs="311.026359" PMx_abs="39.735726" NOx_abs="863.335089" fuel_abs="668730.423345" electricity_abs="0"/>
    </tripinfo>
    <tripinfo id="40" depart="18000.00" departLane="-206679802#4_0" departPos="5.10" departSpeed="0.00" departDelay="0.00" arrival="18952.00" arrivalLane="-206679802#4_0" arrivalPos="292.11" arrivalSpeed="11.30" duration="952.00" routeLength="6691.70" waitingTime="244.00" waitingCount="9" stopTime="20.00" timeLoss="351.00" rerouteNo="7" devices="vehroute_40 tripinfo_40 emissions_40" vType="vecType" speedFactor="1.03" vaporized="">
        <emissions CO_abs="66251.948047" CO2_abs="2369750.354786" HC_abs="356.399700" PMx_abs="42.134737" NOx_abs="971.472350" fuel_abs="755860.099935" electricity_abs="0"/>
    </tripinfo>
    <tripinfo id="43" depart="18012.00" departLane="123867455_0" departPos="5.10" departSpeed="0.00" departDelay="12.00" arrival="18955.00" arrivalLane="123867455_0" arrivalPos="904.85" arrivalSpeed="28.92" duration="943.00" routeLength="8280.56" waitingTime="219.00" waitingCount="11" stopTime="20.00" timeLoss="350.16" rerouteNo="2" devices="vehroute_43 tripinfo_43 emissions_43" vType="vecType" speedFactor="1.04" vaporized="">
        <emissions CO_abs="70955.834843" CO2_abs="2826468.577357" HC_abs="389.077767" PMx_abs="53.770608" NOx_abs="1153.722271" fuel_abs="901528.684243" electricity_abs="0"/>
    </tripinfo>
    <tripinfo id="3" depart="18000.00" departLane="-133781749_0" departPos="5.10" departSpeed="0.00" departDelay="0.00" arrival="18958.00" arrivalLane="-133781749_0" arrivalPos="138.68" arrivalSpeed="11.12" duration="958.00" routeLength="7501.04" waitingTime="243.00" waitingCount="13" stopTime="20.00" timeLoss="369.49" rerouteNo="1" devices="vehroute_3 tripinfo_3 emissions_3" vType="vecType" speedFactor="1.08" vaporized="">
        <emissions CO_abs="70463.706500" CO2_abs="2651233.140951" HC_abs="382.025248" PMx_abs="49.371021" NOx_abs="1090.008005" fuel_abs="845638.291806" electricity_abs="0"/>
    </tripinfo>
    <tripinfo id="90" depart="18120.00" departLane="-254758120#3_0" departPos="5.10" departSpeed="0.00" departDelay="0.00" arrival="18958.00" arrivalLane="-254758120#3_0" arrivalPos="147.41" arrivalSpeed="10.85" duration="838.00" routeLength="5221.94" waitingTime="266.00" waitingCount="10" stopTime="20.00" timeLoss="357.70" rerouteNo="1" devices="vehroute_90 tripinfo_90 emissions_90" vType="vecType" speedFactor="1.02" vaporized="">
        <emissions CO_abs="64431.765918" CO2_abs="2002208.233154" HC_abs="339.597117" PMx_abs="36.493822" NOx_abs="826.603487" fuel_abs="638632.515345" electricity_abs="0"/>
    </tripinfo>
    <tripinfo id="75" depart="18120.00" departLane="-254297762#2_0" departPos="5.10" departSpeed="0.00" departDelay="0.00" arrival="18961.00" arrivalLane="-254297762#2_0" arrivalPos="291.17" arrivalSpeed="10.29" duration="841.00" routeLength="5758.38" waitingTime="192.00" waitingCount="11" stopTime="20.00" timeLoss="298.05" rerouteNo="2" devices="vehroute_75 tripinfo_75 emissions_75" vType="vecType" speedFactor="0.98" vaporized="">
        <emissions CO_abs="57157.676101" CO2_abs="2051077.583493" HC_abs="307.630814" PMx_abs="36.081070" NOx_abs="840.401547" fuel_abs="654215.773427" electricity_abs="0"/>
    </tripinfo>
    <tripinfo id="9" depart="18000.00" departLane="23959829#0_0" departPos="5.10" departSpeed="0.00" departDelay="0.00" arrival="18966.00" arrivalLane="23959829#0_0" arrivalPos="45.86" arrivalSpeed="8.85" duration="966.00" routeLength="6745.88" waitingTime="194.00" waitingCount="10" stopTime="20.00" timeLoss="307.04" rerouteNo="2" devices="vehroute_9 tripinfo_9 emissions_9" vType="vecType" speedFactor="0.86" vaporized="">
        <emissions CO_abs="63425.905007" CO2_abs="2285746.139759" HC_abs="341.237103" PMx_abs="39.613401" NOx_abs="929.935598" fuel_abs="729066.712909" electricity_abs="0"/>
    </tripinfo>
    <tripinfo id="56" depart="18066.00" departLane="31129765_0" departPos="5.10" departSpeed="0.00" departDelay="6.00" arrival="18969.00" arrivalLane="31129765_0" arrivalPos="639.51" arrivalSpeed="20.01" duration="903.00" routeLength="13447.31" waitingTime="168.00" waitingCount="5" stopTime="0.00" timeLoss="238.05" rerouteNo="4" devices="vehroute_56 tripinfo_56 emissions_56" vType="vecType" speedFactor="0.90" vaporized="">
        <emissions CO_abs="61905.822888" CO2_abs="3271498.391276" HC_abs="358.045337" PMx_abs="63.156847" NOx_abs="1259.936365" fuel_abs="1043466.682361" electricity_abs="0"/>
    </tripinfo>