<?xml version="1.0" encoding="UTF-8"?>

<!-- generated on 2023-01-09 09:25:02 by Eclipse SUMO sumo Version 1.14.1
<configuration xmlns:xsi="http://www.w3.org/2001/XMLSchema-instance" xsi:noNamespaceSchemaLocation="http://sumo.dlr.de/xsd/sumoConfiguration.xsd">

    <input>
        <net-file value="./strategia3_config/../san_francisco.net.xml"/>
        <route-files value="./strategia3_config/../san_francisco.rou.xml"/>
        <additional-files value="./strategia3_config/../san_francisco.poly.xml,./strategia3_config/../parking_capacity_100%25/off_parking_100%25.add.xml,./strategia3_config/../parking_capacity_100%25/on_parking_100%25.add.xml"/>
    </input>

    <output>
        <emission-output value="./strategia3_config/../output/strategia3/100%25/emissions.xml"/>
        <tripinfo-output value="./strategia3_config/../output/strategia3/100%25/tripinfo.xml"/>
        <vehroute-output value="./strategia3_config/../output/strategia3/100%25/vehroute.xml"/>
        <stop-output value="./strategia3_config/../output/strategia3/100%25/stops.xml"/>
        <collision-output value="./strategia3_config/../output/strategia3/100%25/collision.xml"/>
        <statistic-output value="./strategia3_config/../output/strategia3/100%25/statistic.xml"/>
    </output>

    <time>
        <step-length value="1"/>
    </time>

    <processing>
        <ignore-route-errors value="false"/>
    </processing>

    <report>
        <verbose value="true"/>
        <xml-validation value="never"/>
    </report>

    <traci_server>
        <remote-port value="54157"/>
    </traci_server>

    <gui_only>
        <gui-settings-file value="./strategia3_config/../gui-settings.cfg"/>
        <start value="true"/>
    </gui_only>

</configuration>
-->

<tripinfos xmlns:xsi="http://www.w3.org/2001/XMLSchema-instance" xsi:noNamespaceSchemaLocation="http://sumo.dlr.de/xsd/tripinfo_file.xsd">
    <tripinfo id="93" depart="18120.00" departLane="-254758121#2_0" departPos="5.10" departSpeed="0.00" departDelay="0.00" arrival="19563.00" arrivalLane="-254758121#2_0" arrivalPos="99.35" arrivalSpeed="10.29" duration="1443.00" routeLength="3841.81" waitingTime="42.00" waitingCount="2" stopTime="977.00" timeLoss="92.88" rerouteNo="2" devices="vehroute_93 tripinfo_93 emissions_93" vType="vecType" speedFactor="0.92" vaporized="">
        <emissions CO_abs="22451.478902" CO2_abs="1082014.439794" HC_abs="127.051767" PMx_abs="16.994459" NOx_abs="431.043713" fuel_abs="345118.818999" electricity_abs="0"/>
    </tripinfo>
    <tripinfo id="136" depart="18360.00" departLane="31129765_0" departPos="5.10" departSpeed="0.00" departDelay="0.00" arrival="20148.00" arrivalLane="31129765_0" arrivalPos="639.51" arrivalSpeed="24.24" duration="1788.00" routeLength="8014.77" waitingTime="288.00" waitingCount="11" stopTime="908.00" timeLoss="403.59" rerouteNo="1" devices="vehroute_136 tripinfo_136 emissions_136" vType="vecType" speedFactor="1.12" vaporized="">
        <emissions CO_abs="81642.743631" CO2_abs="2971371.140519" HC_abs="441.458575" PMx_abs="60.526516" NOx_abs="1224.328315" fuel_abs="947747.744253" electricity_abs="0"/>
    </tripinfo>
    <tripinfo id="3" depart="18000.00" departLane="-133781749_0" departPos="5.10" departSpeed="0.00" departDelay="0.00" arrival="20309.00" arrivalLane="-133781749_0" arrivalPos="138.68" arrivalSpeed="11.90" duration="2309.00" routeLength="7501.04" waitingTime="252.00" waitingCount="13" stopTime="1356.00" timeLoss="384.01" rerouteNo="1" devices="vehroute_3 tripinfo_3 emissions_3" vType="vecType" speedFactor="1.08" vaporized="">
        <emissions CO_abs="71850.537681" CO2_abs="2691826.759869" HC_abs="389.194639" PMx_abs="49.604582" NOx_abs="1103.641505" fuel_abs="858586.829370" electricity_abs="0"/>
    </tripinfo>
    <tripinfo id="22" depart="18000.00" departLane="27398045#1_0" departPos="5.10" departSpeed="0.00" departDelay="0.00" arrival="20555.00" arrivalLane="27398045#1_0" arrivalPos="122.17" arrivalSpeed="10.55" duration="2555.00" routeLength="6484.53" waitingTime="310.00" waitingCount="11" stopTime="1546.00" timeLoss="416.14" rerouteNo="2" devices="vehroute_22 tripinfo_22 emissions_22" vType="vecType" speedFactor="0.97" vaporized="">
        <emissions CO_abs="77641.578389" CO2_abs="2493772.588178" HC_abs="411.103941" PMx_abs="45.305728" NOx_abs="1030.780011" fuel_abs="795422.196051" electricity_abs="0"/>
    </tripinfo>
    <tripinfo id="187" depart="18660.00" departLane="-24335483#9_0" departPos="5.10" departSpeed="0.00" departDelay="0.00" arrival="20571.00" arrivalLane="-24335483#9_0" arrivalPos="292.66" arrivalSpeed="9.06" duration="1911.00" routeLength="4210.80" waitingTime="42.00" waitingCount="2" stopTime="1403.00" timeLoss="93.72" rerouteNo="2" devices="vehroute_187 tripinfo_187 emissions_187" vType="vecType" speedFactor="0.91" vaporized="">
        <emissions CO_abs="23041.816508" CO2_abs="1132569.672598" HC_abs="130.733017" PMx_abs="16.841292" NOx_abs="445.028188" fuel_abs="361244.673976" electricity_abs="0"/>
    </tripinfo>
    <tripinfo id="36" depart="18009.00" departLane="123867455_0" departPos="5.10" departSpeed="0.00" departDelay="9.00" arrival="20592.00" arrivalLane="123867455_0" arrivalPos="904.85" arrivalSpeed="28.25" duration="2583.00" routeLength="5901.75" waitingTime="235.00" waitingCount="7" stopTime="1882.00" timeLoss="317.41" rerouteNo="2" devices="vehroute_36 tripinfo_36 emissions_36" vType="vecType" speedFactor="0.97" vaporized="">
        <emissions CO_abs="62603.693827" CO2_abs="2152565.601258" HC_abs="335.939983" PMx_abs="43.244818" NOx_abs="886.896004" fuel_abs="686584.398950" electricity_abs="0"/>
    </tripinfo>
    <tripinfo id="85" depart="18126.00" departLane="90077241_0" departPos="5.10" departSpeed="0.00" departDelay="6.00" arrival="20595.00" arrivalLane="90077241_0" arrivalPos="3225.35" arrivalSpeed="27.43" duration="2469.00" routeLength="11984.76" waitingTime="147.00" waitingCount="6" stopTime="1730.00" timeLoss="210.06" rerouteNo="1" devices="vehroute_85 tripinfo_85 emissions_85" vType="vecType" speedFactor="0.98" vaporized="">
        <emissions CO_abs="60136.848402" CO2_abs="3036842.595281" HC_abs="346.883887" PMx_abs="62.791361" NOx_abs="1173.414229" fuel_abs="968620.960003" electricity_abs="0"/>
    </tripinfo>
    <tripinfo id="52" depart="18060.00" departLane="30029172#0_0" departPos="5.10" departSpeed="0.00" departDelay="0.00" arrival="20654.00" arrivalLane="30029172#0_0" arrivalPos="147.16" arrivalSpeed="10.61" duration="2594.00" routeLength="8434.59" waitingTime="288.00" waitingCount="9" stopTime="1564.00" timeLoss="394.27" rerouteNo="2" devices="vehroute_52 tripinfo_52 emissions_52" vType="vecType" speedFactor="1.02" vaporized="">
        <emissions CO_abs="77772.905072" CO2_abs="2899219.838743" HC_abs="421.408812" PMx_abs="53.670877" NOx_abs="1182.962995" fuel_abs="924737.566837" electricity_abs="0"/>
    </tripinfo>
    <tripinfo id="241" depart="19440.00" departLane="288065247#6_0" departPos="5.10" departSpeed="0.00" departDelay="0.00" arrival="20720.00" arrivalLane="288065247#6_0" arrivalPos="102.86" arrivalSpeed="11.62" duration="1280.00" routeLength="1946.33" waitingTime="31.00" waitingCount="1" stopTime="1070.00" timeLoss="58.10" rerouteNo="2" devices="vehroute_241 tripinfo_241 emissions_241" vType="vecType" speedFactor="1.14" vaporized="">
        <emissions CO_abs="11727.599810" CO2_abs="583305.065708" HC_abs="66.510887" PMx_abs="9.809488" NOx_abs="233.550443" fuel_abs="186049.925812" electricity_abs="0"/>
    </tripinfo>
    <tripinfo id="88" depart="18123.00" departLane="31129765_0" departPos="5.10" departSpeed="0.00" departDelay="3.00" arrival="20727.00" arrivalLane="31129765_0" arrivalPos="639.51" arrivalSpeed="22.47" duration="2604.00" routeLength="6946.37" waitingTime="246.00" waitingCount="9" stopTime="1827.00" timeLoss="342.58" rerouteNo="1" devices="vehroute_88 tripinfo_88 emissions_88" vType="vecType" speedFactor="1.01" vaporized="">
        <emissions CO_abs="67938.745961" CO2_abs="2485754.120667" HC_abs="367.519490" PMx_abs="49.224374" NOx_abs="1018.081048" fuel_abs="792856.533772" electricity_abs="0"/>
    </tripinfo>
    <tripinfo id="193" depart="18663.00" departLane="90077241_0" departPos="5.10" departSpeed="0.00" departDelay="3.00" arrival="20787.00" arrivalLane="90077241_0" arrivalPos="3225.35" arrivalSpeed="27.75" duration="2124.00" routeLength="11127.63" waitingTime="3.00" waitingCount="1" stopTime="1629.00" timeLoss="41.02" rerouteNo="1" devices="vehroute_193 tripinfo_193 emissions_193" vType="vecType" speedFactor="0.97" vaporized="">
        <emissions CO_abs="31523.378172" CO2_abs="2398546.585006" HC_abs="201.620652" PMx_abs="49.102409" NOx_abs="901.049546" fuel_abs="765024.313000" electricity_abs="0"/>
    </tripinfo>
    <tripinfo id="137" depart="18420.00" departLane="-204967525_0" departPos="5.10" departSpeed="0.00" departDelay="0.00" arrival="20819.00" arrivalLane="-204967525_1" arrivalPos="146.26" arrivalSpeed="10.24" duration="2399.00" routeLength="5393.50" waitingTime="113.00" waitingCount="6" stopTime="1691.00" timeLoss="195.36" rerouteNo="1" devices="vehroute_137 tripinfo_137 emissions_137" vType="vecType" speedFactor="1.02" vaporized="">
        <emissions CO_abs="40319.769401" CO2_abs="1625763.406827" HC_abs="220.778139" PMx_abs="25.998534" NOx_abs="646.620024" fuel_abs="518556.741170" electricity_abs="0"/>
    </tripinfo>
    <tripinfo id="107" depart="18180.00" departLane="-206662304#13_0" departPos="5.10" departSpeed="0.00" departDelay="0.00" arrival="20824.00" arrivalLane="-206662304#13_0" arrivalPos="290.52" arrivalSpeed="11.08" duration="2644.00" routeLength="14526.52" waitingTime="312.00" waitingCount="13" stopTime="1309.00" timeLoss="442.57" rerouteNo="1" devices="vehroute_107 tripinfo_107 emissions_107" vType="vecType" speedFactor="1.03" vaporized="">
        <emissions CO_abs="100452.443484" CO2_abs="4196116.528053" HC_abs="557.008704" PMx_abs="81.133380" NOx_abs="1667.547065" fuel_abs="1338390.397138" electricity_abs="0"/>
    </tripinfo>
    <tripinfo id="122" depart="18240.00" departLane="111089307#0_0" departPos="5.10" departSpeed="0.00" departDelay="0.00" arrival="20848.00" arrivalLane="111089307#0_0" arrivalPos="135.96" arrivalSpeed="11.46" duration="2608.00" routeLength="7104.23" waitingTime="393.00" waitingCount="14" stopTime="1479.00" timeLoss="512.41" rerouteNo="1" devices="vehroute_122 tripinfo_122 emissions_122" vType="vecType" speedFactor="1.03" vaporized="">
        <emissions CO_abs="92110.957041" CO2_abs="2821681.908424" HC_abs="484.525963" PMx_abs="52.138470" NOx_abs="1168.683294" fuel_abs="900015.285634" electricity_abs="0"/>
    </tripinfo>
    <tripinfo id="91" depart="18123.00" departLane="144489137#0_0" departPos="5.10" departSpeed="0.00" departDelay="3.00" arrival="20870.00" arrivalLane="144489137#0_0" arrivalPos="135.49" arrivalSpeed="9.43" duration="2747.00" routeLength="5831.91" waitingTime="298.00" waitingCount="12" stopTime="1761.00" timeLoss="404.29" rerouteNo="1" devices="vehroute_91 tripinfo_91 emissions_91" vType="vecType" speedFactor="0.89" vaporized="">
        <emissions CO_abs="76327.682105" CO2_abs="2270638.545716" HC_abs="399.740070" PMx_abs="40.973877" NOx_abs="939.346998" fuel_abs="724254.286104" electricity_abs="0"/>
    </tripinfo>
    <tripinfo id="159" depart="18540.00" departLane="28805009#5_0" departPos="5.10" departSpeed="0.00" departDelay="0.00" arrival="20909.00" arrivalLane="28805009#5_0" arrivalPos="49.78" arrivalSpeed="10.04" duration="2369.00" routeLength="3704.12" waitingTime="114.00" waitingCount="5" stopTime="1831.00" timeLoss="180.59" rerouteNo="1" devices="vehroute_159 tripinfo_159 emissions_159" vType="vecType" speedFactor="0.93" vaporized="">
        <emissions CO_abs="36292.563615" CO2_abs="1301309.238400" HC_abs="195.229944" PMx_abs="22.567384" NOx_abs="532.481417" fuel_abs="415068.443555" electricity_abs="0"/>
    </tripinfo>
    <tripinfo id="75" depart="18120.00" departLane="-254297762#2_0" departPos="5.10" departSpeed="0.00" departDelay="0.00" arrival="20941.00" arrivalLane="-254297762#2_0" arrivalPos="291.17" arrivalSpeed="10.75" duration="2821.00" routeLength="5758.38" waitingTime="150.00" waitingCount="11" stopTime="2046.00" timeLoss="251.39" rerouteNo="2" devices="vehroute_75 tripinfo_75 emissions_75" vType="vecType" speedFactor="0.98" vaporized="">
        <emissions CO_abs="49324.907920" CO2_abs="1900279.137274" HC_abs="268.440950" PMx_abs="32.647822" NOx_abs="773.251769" fuel_abs="606115.425120" electricity_abs="0"/>
    </tripinfo>
    <tripinfo id="49" depart="18063.00" departLane="31129765_0" departPos="5.10" departSpeed="0.00" departDelay="3.00" arrival="21117.00" arrivalLane="31129765_0" arrivalPos="639.51" arrivalSpeed="17.93" duration="3054.00" routeLength="12944.78" waitingTime="1.00" waitingCount="1" stopTime="2471.00" timeLoss="36.84" rerouteNo="1" devices="vehroute_49 tripinfo_49 emissions_49" vType="vecType" speedFactor="0.85" vaporized="">
        <emissions CO_abs="23120.107375" CO2_abs="2484136.312289" HC_abs="161.124457" PMx_abs="45.071263" NOx_abs="899.362858" fuel_abs="792322.430612" electricity_abs="0"/>
    </tripinfo>
    <tripinfo id="198" depart="18720.00" departLane="142972028#1_0" departPos="5.10" departSpeed="0.00" departDelay="0.00" arrival="21120.00" arrivalLane="142972028#1_0" arrivalPos="161.20" arrivalSpeed="8.51" duration="2400.00" routeLength="4815.06" waitingTime="264.00" waitingCount="10" stopTime="1563.00" timeLoss="344.52" rerouteNo="1" devices="vehroute_198 tripinfo_198 emissions_198" vType="vecType" speedFactor="0.87" vaporized="">
        <emissions CO_abs="65450.612026" CO2_abs="1903519.198730" HC_abs="341.812669" PMx_abs="34.685626" NOx_abs="790.207797" fuel_abs="607156.555381" electricity_abs="0"/>
    </tripinfo>
    <tripinfo id="172" depart="18540.00" departLane="-35977367#1_0" departPos="5.10" departSpeed="0.00" departDelay="0.00" arrival="21202.00" arrivalLane="-35977367#1_0" arrivalPos="147.29" arrivalSpeed="11.64" duration="2662.00" routeLength="6028.88" waitingTime="313.00" waitingCount="12" stopTime="1741.00" timeLoss="417.36" rerouteNo="1" devices="vehroute_172 tripinfo_172 emissions_172" vType="vecType" speedFactor="1.07" vaporized="">
        <emissions CO_abs="75912.230783" CO2_abs="2431772.919432" HC_abs="401.630843" PMx_abs="45.695753" NOx_abs="1011.943284" fuel_abs="775645.197865" electricity_abs="0"/>
    </tripinfo>
    <tripinfo id="269" depart="19500.00" departLane="-133755930#1_0" departPos="5.10" departSpeed="0.00" departDelay="0.00" arrival="21265.00" arrivalLane="-133755930#1_1" arrivalPos="16.00" arrivalSpeed="9.88" duration="1765.00" routeLength="3904.94" waitingTime="221.00" waitingCount="7" stopTime="1123.00" timeLoss="284.35" rerouteNo="2" devices="vehroute_269 tripinfo_269 emissions_269" vType="vecType" speedFactor="0.98" vaporized="">
        <emissions CO_abs="51271.166606" CO2_abs="1537272.737916" HC_abs="268.924405" PMx_abs="28.127849" NOx_abs="636.343961" fuel_abs="490335.723702" electricity_abs="0"/>
    </tripinfo>
    <tripinfo id="60" depart="18060.00" departLane="8916792_0" departPos="5.10" departSpeed="0.00" departDelay="0.00" arrival="21277.00" arrivalLane="8916792_0" arrivalPos="615.11" arrivalSpeed="11.87" duration="3217.00" routeLength="3743.73" waitingTime="50.00" waitingCount="3" stopTime="2815.00" timeLoss="92.33" rerouteNo="1" devices="vehroute_60 tripinfo_60 emissions_60" vType="vecType" speedFactor="1.08" vaporized="">
        <emissions CO_abs="18510.479927" CO2_abs="956759.985149" HC_abs="106.022236" PMx_abs="14.863127" NOx_abs="375.630137" fuel_abs="305167.384810" electricity_abs="0"/>
    </tripinfo>
    <tripinfo id="35" depart="18000.00" departLane="191296172#0_0" departPos="5.10" departSpeed="0.00" departDelay="0.00" arrival="21282.00" arrivalLane="191296172#0_1" arrivalPos="157.44" arrivalSpeed="10.90" duration="3282.00" routeLength="8733.95" waitingTime="341.00" waitingCount="12" stopTime="2104.00" timeLoss="465.98" rerouteNo="2" devices="vehroute_35 tripinfo_35 emissions_35" vType="vecType" speedFactor="1.02" vaporized="">
        <emissions CO_abs="88725.131257" CO2_abs="3101757.698127" HC_abs="475.702372" PMx_abs="56.645904" NOx_abs="1271.886067" fuel_abs="989342.674781" electricity_abs="0"/>
    </tripinfo>
    <tripinfo id="180" depart="18600.00" departLane="225806031#0_0" departPos="5.10" departSpeed="0.00" departDelay="0.00" arrival="21329.00" arrivalLane="225806031#0_0" arrivalPos="142.16" arrivalSpeed="10.27" duration="2729.00" routeLength="6166.55" waitingTime="411.00" waitingCount="15" stopTime="1649.00" timeLoss="530.97" rerouteNo="1" devices="vehroute_180 tripinfo_180 emissions_180" vType="vecType" speedFactor="1.00" vaporized="">
        <emissions CO_abs="94601.122538" CO2_abs="2702144.827068" HC_abs="493.295792" PMx_abs="51.390833" NOx_abs="1130.994806" fuel_abs="861889.450127" electricity_abs="0"/>
    </tripinfo>
    <tripinfo id="285" depart="19563.00" departLane="90077241_0" departPos="5.10" departSpeed="0.00" departDelay="3.00" arrival="21440.00" arrivalLane="90077241_0" arrivalPos="3225.35" arrivalSpeed="30.14" duration="1877.00" routeLength="11348.91" waitingTime="48.00" waitingCount="1" stopTime="1331.00" timeLoss="104.56" rerouteNo="1" devices="vehroute_285 tripinfo_285 emissions_285" vType="vecType" speedFactor="1.05" vaporized="">
        <emissions CO_abs="46310.026633" CO2_abs="2667794.788482" HC_abs="277.246211" PMx_abs="58.214606" NOx_abs="1022.931425" fuel_abs="850905.461838" electricity_abs="0"/>
    </tripinfo>
    <tripinfo id="96" depart="18180.00" departLane="90077241_0" departPos="5.10" departSpeed="0.00" departDelay="0.00" arrival="21498.00" arrivalLane="90077241_0" arrivalPos="3225.35" arrivalSpeed="29.01" duration="3318.00" routeLength="15578.71" waitingTime="311.00" waitingCount="9" stopTime="2117.00" timeLoss="417.59" rerouteNo="2" devices="vehroute_96 tripinfo_96 emissions_96" vType="vecType" speedFactor="1.01" vaporized="">
        <emissions CO_abs="101338.472218" CO2_abs="4350288.984387" HC_abs="565.724455" PMx_abs="89.146157" NOx_abs="1716.169379" fuel_abs="1387560.914307" electricity_abs="0"/>
    </tripinfo>
    <tripinfo id="129" depart="18300.00" departLane="90077241_0" departPos="5.10" departSpeed="0.00" departDelay="0.00" arrival="21507.00" arrivalLane="90077241_0" arrivalPos="3225.35" arrivalSpeed="28.78" duration="3207.00" routeLength="12197.50" waitingTime="104.00" waitingCount="3" stopTime="2539.00" timeLoss="160.17" rerouteNo="2" devices="vehroute_129 tripinfo_129 emissions_129" vType="vecType" speedFactor="1.01" vaporized="">
        <emissions CO_abs="54977.546218" CO2_abs="3001757.367907" HC_abs="323.300310" PMx_abs="63.199131" NOx_abs="1158.131157" fuel_abs="957426.939958" electricity_abs="0"/>
    </tripinfo>
    <tripinfo id="181" depart="18600.00" departLane="111089307#0_0" departPos="5.10" departSpeed="0.00" departDelay="0.00" arrival="21565.00" arrivalLane="111089307#0_0" arrivalPos="135.96" arrivalSpeed="11.49" duration="2965.00" routeLength="7182.83" waitingTime="387.00" waitingCount="14" stopTime="1881.00" timeLoss="500.25" rerouteNo="1" devices="vehroute_181 tripinfo_181 emissions_181" vType="vecType" speedFactor="1.10" vaporized="">
        <emissions CO_abs="89262.163998" CO2_abs="2810775.284256" HC_abs="470.797817" PMx_abs="52.289755" NOx_abs="1163.382058" fuel_abs="896534.631791" electricity_abs="0"/>
    </tripinfo>
    <tripinfo id="196" depart="18666.00" departLane="90077241_0" departPos="5.10" departSpeed="0.00" departDelay="6.00" arrival="21611.00" arrivalLane="90077241_0" arrivalPos="3225.35" arrivalSpeed="31.07" duration="2945.00" routeLength="13207.84" waitingTime="289.00" waitingCount="8" stopTime="1995.00" timeLoss="377.32" rerouteNo="1" devices="vehroute_196 tripinfo_196 emissions_196" vType="vecType" speedFactor="1.09" vaporized="">
        <emissions CO_abs="99562.061611" CO2_abs="3982103.412574" HC_abs="550.794721" PMx_abs="87.855663" NOx_abs="1585.690432" fuel_abs="1270124.445252" electricity_abs="0"/>
    </tripinfo>
    <tripinfo id="66" depart="18060.00" departLane="-206662304#13_0" departPos="5.10" departSpeed="0.00" departDelay="0.00" arrival="21657.00" arrivalLane="-206662304#13_0" arrivalPos="290.52" arrivalSpeed="9.45" duration="3597.00" routeLength="6773.96" waitingTime="237.00" waitingCount="15" stopTime="2568.00" timeLoss="360.17" rerouteNo="1" devices="vehroute_66 tripinfo_66 emissions_66" vType="vecType" speedFactor="0.91" vaporized="">
        <emissions CO_abs="71081.164577" CO2_abs="2409886.581877" HC_abs="379.048872" PMx_abs="41.769777" NOx_abs="986.081335" fuel_abs="768665.171356" electricity_abs="0"/>
    </tripinfo>
    <tripinfo id="90" depart="18120.00" departLane="-254758120#3_0" departPos="5.10" departSpeed="0.00" departDelay="0.00" arrival="21657.00" arrivalLane="-254758120#3_0" arrivalPos="147.41" arrivalSpeed="11.21" duration="3537.00" routeLength="5221.94" waitingTime="249.00" waitingCount="8" stopTime="2750.00" timeLoss="327.43" rerouteNo="1" devices="vehroute_90 tripinfo_90 emissions_90" vType="vecType" speedFactor="1.02" vaporized="">
        <emissions CO_abs="60032.040170" CO2_abs="1936024.773677" HC_abs="317.934434" PMx_abs="34.852916" NOx_abs="795.964678" fuel_abs="617521.465938" electricity_abs="0"/>
    </tripinfo>
    <tripinfo id="80" depart="18120.00" departLane="-23883760_0" departPos="5.10" departSpeed="0.00" departDelay="0.00" arrival="21697.00" arrivalLane="-23883760_0" arrivalPos="242.29" arrivalSpeed="11.01" duration="3577.00" routeLength="7229.13" waitingTime="335.00" waitingCount="16" stopTime="2490.00" timeLoss="461.78" rerouteNo="2" devices="vehroute_80 tripinfo_80 emissions_80" vType="vecType" speedFactor="1.03" vaporized="">
        <emissions CO_abs="82623.563022" CO2_abs="2661999.520676" HC_abs="437.638030" PMx_abs="47.951318" NOx_abs="1094.796139" fuel_abs="849080.990617" electricity_abs="0"/>
    </tripinfo>
    <tripinfo id="301" depart="19800.00" departLane="-191296172#2_0" departPos="5.10" departSpeed="0.00" departDelay="0.00" arrival="21730.00" arrivalLane="-191296172#2_1" arrivalPos="137.04" arrivalSpeed="11.62" duration="1930.00" routeLength="5517.32" waitingTime="102.00" waitingCount="4" stopTime="1397.00" timeLoss="168.87" rerouteNo="2" devices="vehroute_301 tripinfo_301 emissions_301" vType="vecType" speedFactor="1.06" vaporized="">
        <emissions CO_abs="37581.455915" CO2_abs="1740757.536168" HC_abs="212.022105" PMx_abs="32.602384" NOx_abs="705.041263" fuel_abs="555227.827351" electricity_abs="0"/>
    </tripinfo>
    <tripinfo id="42" depart="18009.00" departLane="31129765_0" departPos="5.10" departSpeed="0.00" departDelay="9.00" arrival="21771.00" arrivalLane="31129765_0" arrivalPos="639.51" arrivalSpeed="24.20" duration="3762.00" routeLength="7763.38" waitingTime="306.00" waitingCount="13" stopTime="2881.00" timeLoss="412.95" rerouteNo="1" devices="vehroute_42 tripinfo_42 emissions_42" vType="vecType" speedFactor="1.09" vaporized="">
        <emissions CO_abs="81870.818455" CO2_abs="2916261.317122" HC_abs="440.924089" PMx_abs="59.086508" NOx_abs="1203.811539" fuel_abs="930171.048536" electricity_abs="0"/>
    </tripinfo>
    <tripinfo id="167" depart="18540.00" departLane="-8916048_0" departPos="5.10" departSpeed="0.00" departDelay="0.00" arrival="21783.00" arrivalLane="-8916048_0" arrivalPos="126.72" arrivalSpeed="8.60" duration="3243.00" routeLength="6706.37" waitingTime="252.00" waitingCount="16" stopTime="2198.00" timeLoss="386.66" rerouteNo="1" devices="vehroute_167 tripinfo_167 emissions_167" vType="vecType" speedFactor="0.83" vaporized="">
        <emissions CO_abs="77182.245730" CO2_abs="2498584.733983" HC_abs="408.652622" PMx_abs="45.308603" NOx_abs="1031.648372" fuel_abs="796956.673140" electricity_abs="0"/>
    </tripinfo>
    <tripinfo id="2" depart="18000.00" departLane="142972028#1_0" departPos="5.10" departSpeed="0.00" departDelay="0.00" arrival="21819.00" arrivalLane="142972028#1_0" arrivalPos="161.20" arrivalSpeed="10.91" duration="3819.00" routeLength="6732.31" waitingTime="188.00" waitingCount="11" stopTime="2979.00" timeLoss="301.78" rerouteNo="2" devices="vehroute_2 tripinfo_2 emissions_2" vType="vecType" speedFactor="1.01" vaporized="">
        <emissions CO_abs="58120.522293" CO2_abs="2273684.062543" HC_abs="316.979335" PMx_abs="40.342340" NOx_abs="922.422120" fuel_abs="725215.826470" electricity_abs="0"/>
    </tripinfo>
    <tripinfo id="206" depart="18963.00" departLane="90077241_0" departPos="5.10" departSpeed="0.00" departDelay="3.00" arrival="21870.00" arrivalLane="90077241_1" arrivalPos="3225.35" arrivalSpeed="32.81" duration="2907.00" routeLength="12001.91" waitingTime="48.00" waitingCount="3" stopTime="2352.00" timeLoss="104.49" rerouteNo="1" devices="vehroute_206 tripinfo_206 emissions_206" vType="vecType" speedFactor="1.16" vaporized="">
        <emissions CO_abs="59206.014780" CO2_abs="3053214.168177" HC_abs="346.069889" PMx_abs="70.269950" NOx_abs="1184.365270" fuel_abs="973837.292201" electricity_abs="0"/>
    </tripinfo>
    <tripinfo id="21" depart="18000.00" departLane="27167762_0" departPos="5.10" departSpeed="0.00" departDelay="0.00" arrival="21950.00" arrivalLane="27167762_0" arrivalPos="139.02" arrivalSpeed="21.59" duration="3950.00" routeLength="5201.43" waitingTime="167.00" waitingCount="6" stopTime="3366.00" timeLoss="237.75" rerouteNo="1" devices="vehroute_21 tripinfo_21 emissions_21" vType="vecType" speedFactor="1.01" vaporized="">
        <emissions CO_abs="49499.814162" CO2_abs="1884652.655869" HC_abs="269.815242" PMx_abs="37.006259" NOx_abs="774.804032" fuel_abs="601127.917707" electricity_abs="0"/>
    </tripinfo>
    <tripinfo id="175" depart="18540.00" departLane="8916792_0" departPos="5.10" departSpeed="0.00" departDelay="0.00" arrival="22043.00" arrivalLane="8916792_0" arrivalPos="615.11" arrivalSpeed="9.85" duration="3503.00" routeLength="7682.85" waitingTime="421.00" waitingCount="14" stopTime="2254.00" timeLoss="540.74" rerouteNo="1" devices="vehroute_175 tripinfo_175 emissions_175" vType="vecType" speedFactor="0.97" vaporized="">
        <emissions CO_abs="99234.661747" CO2_abs="3019972.758872" HC_abs="521.464163" PMx_abs="54.702804" NOx_abs="1246.650619" fuel_abs="963264.352991" electricity_abs="0"/>
    </tripinfo>
    <tripinfo id="6" depart="18000.00" departLane="225806031#0_0" departPos="5.10" departSpeed="0.00" departDelay="0.00" arrival="22046.00" arrivalLane="225806031#0_0" arrivalPos="142.16" arrivalSpeed="10.46" duration="4046.00" routeLength="6532.67" waitingTime="428.00" waitingCount="17" stopTime="2927.00" timeLoss="561.18" rerouteNo="1" devices="vehroute_6 tripinfo_6 emissions_6" vType="vecType" speedFactor="1.05" vaporized="">
        <emissions CO_abs="98603.989125" CO2_abs="2854098.302423" HC_abs="515.098434" PMx_abs="54.792826" NOx_abs="1196.774149" fuel_abs="910355.934301" electricity_abs="0"/>
    </tripinfo>
    <tripinfo id="178" depart="18600.00" departLane="gneE21_0" departPos="5.10" departSpeed="0.00" departDelay="0.00" arrival="22067.00" arrivalLane="gneE21_0" arrivalPos="70.65" arrivalSpeed="14.40" duration="3467.00" routeLength="9934.43" waitingTime="355.00" waitingCount="12" stopTime="2250.00" timeLoss="496.70" rerouteNo="1" devices="vehroute_178 tripinfo_178 emissions_178" vType="vecType" speedFactor="1.10" vaporized="">
        <emissions CO_abs="94535.305780" CO2_abs="3507880.341522" HC_abs="510.780928" PMx_abs="65.731399" NOx_abs="1438.523675" fuel_abs="1118875.497168" electricity_abs="0"/>
    </tripinfo>
    <tripinfo id="25" depart="18003.00" departLane="-23883761_0" departPos="5.10" departSpeed="0.00" departDelay="3.00" arrival="22107.00" arrivalLane="-23883761_0" arrivalPos="197.88" arrivalSpeed="8.77" duration="4104.00" routeLength="7067.07" waitingTime="385.00" waitingCount="19" stopTime="2848.00" timeLoss="531.14" rerouteNo="2" devices="vehroute_25 tripinfo_25 emissions_25" vType="vecType" speedFactor="0.87" vaporized="">
        <emissions CO_abs="99879.025331" CO2_abs="2883992.259696" HC_abs="521.244210" PMx_abs="53.302519" NOx_abs="1202.949291" fuel_abs="919892.967457" electricity_abs="0"/>
    </tripinfo>
    <tripinfo id="312" depart="19860.00" departLane="8922307_0" departPos="5.10" departSpeed="0.00" departDelay="0.00" arrival="22134.00" arrivalLane="8922307_1" arrivalPos="192.79" arrivalSpeed="10.71" duration="2274.00" routeLength="6772.56" waitingTime="400.00" waitingCount="15" stopTime="1145.00" timeLoss="515.07" rerouteNo="2" devices="vehroute_312 tripinfo_312 emissions_312" vType="vecType" speedFactor="0.98" vaporized="">
        <emissions CO_abs="93652.330825" CO2_abs="2797830.961955" HC_abs="491.139960" PMx_abs="52.388993" NOx_abs="1166.326583" fuel_abs="892408.115647" electricity_abs="0"/>
    </tripinfo>
    <tripinfo id="281" depart="19560.00" departLane="-27570802#1_0" departPos="5.10" departSpeed="0.00" departDelay="0.00" arrival="22147.00" arrivalLane="-27570802#1_0" arrivalPos="269.14" arrivalSpeed="10.91" duration="2587.00" routeLength="7847.09" waitingTime="526.00" waitingCount="17" stopTime="1235.00" timeLoss="654.98" rerouteNo="1" devices="vehroute_281 tripinfo_281 emissions_281" vType="vecType" speedFactor="1.01" vaporized="">
        <emissions CO_abs="116145.527780" CO2_abs="3313336.941447" HC_abs="605.336298" PMx_abs="62.031488" NOx_abs="1378.431700" fuel_abs="1056839.690598" electricity_abs="0"/>
    </tripinfo>
    <tripinfo id="99" depart="18180.00" departLane="-27029204_0" departPos="5.10" departSpeed="0.00" departDelay="0.00" arrival="22159.00" arrivalLane="-27029204_0" arrivalPos="195.60" arrivalSpeed="11.73" duration="3979.00" routeLength="5700.35" waitingTime="195.00" waitingCount="9" stopTime="3280.00" timeLoss="285.11" rerouteNo="1" devices="vehroute_99 tripinfo_99 emissions_99" vType="vecType" speedFactor="1.10" vaporized="">