<?xml version="1.0" encoding="UTF-8"?>

<!-- generated on 2022-12-21 11:48:22 by Eclipse SUMO sumo Version 1.14.1
<configuration xmlns:xsi="http://www.w3.org/2001/XMLSchema-instance" xsi:noNamespaceSchemaLocation="http://sumo.dlr.de/xsd/sumoConfiguration.xsd">

    <input>
        <net-file value="./strategia3_config/../san_francisco.net.xml"/>
        <route-files value="./strategia3_config/../san_francisco.rou.xml"/>
        <additional-files value="./strategia3_config/../san_francisco.poly.xml,./strategia3_config/../parking_capacity_100%25/off_parking_100%25.add.xml,./strategia3_config/../parking_capacity_100%25/on_parking_100%25.add.xml"/>
    </input>

    <output>
        <emission-output value="./strategia3_config/../output/strategia3/100%25/emissions.xml"/>
        <tripinfo-output value="./strategia3_config/../output/strategia3/100%25/tripinfo.xml"/>
        <vehroute-output value="./strategia3_config/../output/strategia3/100%25/vehroute.xml"/>
        <stop-output value="./strategia3_config/../output/strategia3/100%25/stops.xml"/>
        <collision-output value="./strategia3_config/../output/strategia3/100%25/collision.xml"/>
        <statistic-output value="./strategia3_config/../output/strategia3/100%25/statistic.xml"/>
    </output>

    <time>
        <step-length value="1"/>
    </time>

    <processing>
        <ignore-route-errors value="false"/>
        <time-to-teleport value="-1"/>
    </processing>

    <report>
        <verbose value="true"/>
        <xml-validation value="never"/>
    </report>

    <traci_server>
        <remote-port value="62537"/>
    </traci_server>

    <gui_only>
        <gui-settings-file value="./strategia3_config/../gui-settings.cfg"/>
        <start value="true"/>
    </gui_only>

</configuration>
-->

<tripinfos xmlns:xsi="http://www.w3.org/2001/XMLSchema-instance" xsi:noNamespaceSchemaLocation="http://sumo.dlr.de/xsd/tripinfo_file.xsd">
    <tripinfo id="30" depart="18000.00" departLane="-91181760#0_0" departPos="5.10" departSpeed="0.00" departDelay="0.00" arrival="18335.00" arrivalLane="-91181760#0_0" arrivalPos="79.70" arrivalSpeed="12.36" duration="335.00" routeLength="3660.42" waitingTime="5.00" waitingCount="2" stopTime="3.00" timeLoss="53.68" rerouteNo="1" devices="vehroute_30 tripinfo_30 emissions_30" vType="vecType" speedFactor="1.18" vaporized="">
        <emissions CO_abs="13786.262073" CO2_abs="1002918.488226" HC_abs="85.607793" PMx_abs="16.423501" NOx_abs="398.852887" fuel_abs="319885.501330" electricity_abs="0"/>
    </tripinfo>
    <tripinfo id="1" depart="18000.00" departLane="31129765_0" departPos="5.10" departSpeed="0.00" departDelay="0.00" arrival="18353.00" arrivalLane="31129765_0" arrivalPos="639.51" arrivalSpeed="20.60" duration="353.00" routeLength="4341.32" waitingTime="36.00" waitingCount="2" stopTime="3.00" timeLoss="81.86" rerouteNo="1" devices="vehroute_1 tripinfo_1 emissions_1" vType="vecType" speedFactor="0.94" vaporized="">
        <emissions CO_abs="21068.985349" CO2_abs="1199676.405854" HC_abs="123.250543" PMx_abs="22.022781" NOx_abs="475.968259" fuel_abs="382643.570908" electricity_abs="0"/>
    </tripinfo>
    <tripinfo id="45" depart="18060.00" departLane="31129765_0" departPos="5.10" departSpeed="0.00" departDelay="0.00" arrival="18364.00" arrivalLane="31129765_0" arrivalPos="639.51" arrivalSpeed="24.24" duration="304.00" routeLength="4234.28" waitingTime="40.00" waitingCount="1" stopTime="3.00" timeLoss="78.17" rerouteNo="1" devices="vehroute_45 tripinfo_45 emissions_45" vType="vecType" speedFactor="1.09" vaporized="">
        <emissions CO_abs="22894.392099" CO2_abs="1294141.394621" HC_abs="134.935821" PMx_abs="25.773384" NOx_abs="520.534660" fuel_abs="412772.232948" electricity_abs="0"/>
    </tripinfo>
    <tripinfo id="60" depart="18060.00" departLane="8916792_0" departPos="5.10" departSpeed="0.00" departDelay="0.00" arrival="18488.00" arrivalLane="8916792_0" arrivalPos="615.11" arrivalSpeed="11.85" duration="428.00" routeLength="3743.73" waitingTime="70.00" waitingCount="3" stopTime="3.00" timeLoss="115.20" rerouteNo="1" devices="vehroute_60 tripinfo_60 emissions_60" vType="vecType" speedFactor="1.08" vaporized="">
        <emissions CO_abs="22397.838201" CO2_abs="1029303.269326" HC_abs="125.345645" PMx_abs="16.463321" NOx_abs="407.306931" fuel_abs="328306.773459" electricity_abs="0"/>
    </tripinfo>
    <tripinfo id="21" depart="18000.00" departLane="27167762_0" departPos="5.10" departSpeed="0.00" departDelay="0.00" arrival="18537.00" arrivalLane="27167762_0" arrivalPos="139.02" arrivalSpeed="21.75" duration="537.00" routeLength="5201.43" waitingTime="117.00" waitingCount="6" stopTime="3.00" timeLoss="187.87" rerouteNo="1" devices="vehroute_21 tripinfo_21 emissions_21" vType="vecType" speedFactor="1.01" vaporized="">
        <emissions CO_abs="39453.120395" CO2_abs="1692718.117815" HC_abs="219.086168" PMx_abs="31.961108" NOx_abs="688.464463" fuel_abs="539906.689953" electricity_abs="0"/>
    </tripinfo>
    <tripinfo id="74" depart="18120.00" departLane="144489137#0_0" departPos="5.10" departSpeed="0.00" departDelay="0.00" arrival="18540.00" arrivalLane="144489137#0_0" arrivalPos="135.49" arrivalSpeed="10.03" duration="420.00" routeLength="2278.79" waitingTime="158.00" waitingCount="6" stopTime="3.00" timeLoss="206.29" rerouteNo="2" devices="vehroute_74 tripinfo_74 emissions_74" vType="vecType" speedFactor="0.96" vaporized="">
        <emissions CO_abs="37866.885803" CO2_abs="1059592.043989" HC_abs="196.941587" PMx_abs="20.555289" NOx_abs="447.018968" fuel_abs="337972.649795" electricity_abs="0"/>
    </tripinfo>
    <tripinfo id="28" depart="18009.00" departLane="90077241_0" departPos="5.10" departSpeed="0.00" departDelay="9.00" arrival="18575.00" arrivalLane="90077241_0" arrivalPos="3225.35" arrivalSpeed="31.73" duration="566.00" routeLength="11899.33" waitingTime="80.00" waitingCount="2" stopTime="3.00" timeLoss="134.82" rerouteNo="2" devices="vehroute_28 tripinfo_28 emissions_28" vType="vecType" speedFactor="1.13" vaporized="">
        <emissions CO_abs="62151.643429" CO2_abs="3112741.949876" HC_abs="361.093209" PMx_abs="71.716298" NOx_abs="1216.852143" fuel_abs="992824.385504" electricity_abs="0"/>
    </tripinfo>
    <tripinfo id="76" depart="18120.00" departLane="225806031#0_0" departPos="5.10" departSpeed="0.00" departDelay="0.00" arrival="18576.00" arrivalLane="225806031#0_0" arrivalPos="142.16" arrivalSpeed="11.03" duration="456.00" routeLength="3181.76" waitingTime="120.00" waitingCount="5" stopTime="3.00" timeLoss="178.85" rerouteNo="1" devices="vehroute_76 tripinfo_76 emissions_76" vType="vecType" speedFactor="1.03" vaporized="">
        <emissions CO_abs="33831.825375" CO2_abs="1198872.953236" HC_abs="181.793478" PMx_abs="21.621829" NOx_abs="493.754123" fuel_abs="382394.636357" electricity_abs="0"/>
    </tripinfo>
    <tripinfo id="93" depart="18120.00" departLane="-254758121#2_0" departPos="5.10" departSpeed="0.00" departDelay="0.00" arrival="18578.00" arrivalLane="-254758121#2_0" arrivalPos="99.35" arrivalSpeed="9.44" duration="458.00" routeLength="3841.81" waitingTime="34.00" waitingCount="1" stopTime="3.00" timeLoss="81.93" rerouteNo="2" devices="vehroute_93 tripinfo_93 emissions_93" vType="vecType" speedFactor="0.92" vaporized="">
        <emissions CO_abs="20800.714818" CO2_abs="1048314.902144" HC_abs="118.763468" PMx_abs="16.318894" NOx_abs="416.788144" fuel_abs="334369.578107" electricity_abs="0"/>
    </tripinfo>
    <tripinfo id="39" depart="18006.00" departLane="31129765_0" departPos="5.10" departSpeed="0.00" departDelay="6.00" arrival="18580.00" arrivalLane="31129765_0" arrivalPos="639.51" arrivalSpeed="19.62" duration="574.00" routeLength="5869.49" waitingTime="133.00" waitingCount="4" stopTime="3.00" timeLoss="192.98" rerouteNo="2" devices="vehroute_39 tripinfo_39 emissions_39" vType="vecType" speedFactor="0.90" vaporized="">
        <emissions CO_abs="41194.760275" CO2_abs="1759592.521389" HC_abs="227.715352" PMx_abs="32.458030" NOx_abs="701.363164" fuel_abs="561238.268608" electricity_abs="0"/>
    </tripinfo>
    <tripinfo id="10" depart="18000.00" departLane="90077241_0" departPos="5.10" departSpeed="0.00" departDelay="0.00" arrival="18640.00" arrivalLane="90077241_0" arrivalPos="3225.35" arrivalSpeed="30.61" duration="640.00" routeLength="11810.95" waitingTime="100.00" waitingCount="4" stopTime="3.00" timeLoss="178.05" rerouteNo="1" devices="vehroute_10 tripinfo_10 emissions_10" vType="vecType" speedFactor="1.09" vaporized="">
        <emissions CO_abs="64151.136338" CO2_abs="3137148.842503" HC_abs="370.029704" PMx_abs="70.118426" NOx_abs="1226.268694" fuel_abs="1000611.400415" electricity_abs="0"/>
    </tripinfo>
    <tripinfo id="49" depart="18063.00" departLane="31129765_0" departPos="5.10" departSpeed="0.00" departDelay="3.00" arrival="18644.00" arrivalLane="31129765_0" arrivalPos="639.51" arrivalSpeed="18.98" duration="581.00" routeLength="12944.78" waitingTime="0.00" waitingCount="0" stopTime="3.00" timeLoss="31.97" rerouteNo="1" devices="vehroute_49 tripinfo_49 emissions_49" vType="vecType" speedFactor="0.85" vaporized="">
        <emissions CO_abs="23567.011800" CO2_abs="2454267.973636" HC_abs="161.958154" PMx_abs="44.929883" NOx_abs="893.773004" fuel_abs="782795.429515" electricity_abs="0"/>
    </tripinfo>
    <tripinfo id="16" depart="18006.00" departLane="90077241_0" departPos="5.10" departSpeed="0.00" departDelay="6.00" arrival="18687.00" arrivalLane="90077241_0" arrivalPos="3225.35" arrivalSpeed="25.17" duration="681.00" routeLength="11625.26" waitingTime="97.00" waitingCount="2" stopTime="3.00" timeLoss="154.33" rerouteNo="1" devices="vehroute_16 tripinfo_16 emissions_16" vType="vecType" speedFactor="0.88" vaporized="">
        <emissions CO_abs="44085.555768" CO2_abs="2674573.632762" HC_abs="261.341718" PMx_abs="51.134220" NOx_abs="1011.369340" fuel_abs="853070.618098" electricity_abs="0"/>
    </tripinfo>
    <tripinfo id="36" depart="18009.00" departLane="123867455_0" departPos="5.10" departSpeed="0.00" departDelay="9.00" arrival="18701.00" arrivalLane="123867455_0" arrivalPos="904.85" arrivalSpeed="27.94" duration="692.00" routeLength="5901.75" waitingTime="223.00" waitingCount="7" stopTime="3.00" timeLoss="305.04" rerouteNo="2" devices="vehroute_36 tripinfo_36 emissions_36" vType="vecType" speedFactor="0.97" vaporized="">
        <emissions CO_abs="61245.711508" CO2_abs="2138752.346634" HC_abs="329.233758" PMx_abs="42.580231" NOx_abs="878.749216" fuel_abs="682178.303691" electricity_abs="0"/>
    </tripinfo>
    <tripinfo id="47" depart="18060.00" departLane="90077241_0" departPos="5.10" departSpeed="0.00" departDelay="0.00" arrival="18705.00" arrivalLane="90077241_0" arrivalPos="3225.35" arrivalSpeed="25.86" duration="645.00" routeLength="11565.45" waitingTime="60.00" waitingCount="2" stopTime="3.00" timeLoss="107.45" rerouteNo="1" devices="vehroute_47 tripinfo_47 emissions_47" vType="vecType" speedFactor="0.90" vaporized="">
        <emissions CO_abs="39471.645846" CO2_abs="2575970.851403" HC_abs="239.763222" PMx_abs="50.108544" NOx_abs="979.297573" fuel_abs="821618.362809" electricity_abs="0"/>
    </tripinfo>
    <tripinfo id="31" depart="18006.00" departLane="123867455_0" departPos="5.10" departSpeed="0.00" departDelay="6.00" arrival="18709.00" arrivalLane="123867455_0" arrivalPos="904.85" arrivalSpeed="32.58" duration="703.00" routeLength="7632.90" waitingTime="128.00" waitingCount="7" stopTime="3.00" timeLoss="235.90" rerouteNo="1" devices="vehroute_31 tripinfo_31 emissions_31" vType="vecType" speedFactor="1.15" vaporized="">
        <emissions CO_abs="49811.598191" CO2_abs="2335345.355572" HC_abs="280.409885" PMx_abs="44.157498" NOx_abs="939.178256" fuel_abs="744875.817622" electricity_abs="0"/>
    </tripinfo>
    <tripinfo id="68" depart="18060.00" departLane="27167762_0" departPos="5.10" departSpeed="0.00" departDelay="0.00" arrival="18711.00" arrivalLane="27167762_0" arrivalPos="139.02" arrivalSpeed="22.00" duration="651.00" routeLength="5366.29" waitingTime="215.00" waitingCount="7" stopTime="3.00" timeLoss="296.58" rerouteNo="1" devices="vehroute_68 tripinfo_68 emissions_68" vType="vecType" speedFactor="1.04" vaporized="">
        <emissions CO_abs="59060.072658" CO2_abs="2102428.950048" HC_abs="317.950492" PMx_abs="42.149990" NOx_abs="871.128737" fuel_abs="670590.963865" electricity_abs="0"/>
    </tripinfo>
    <tripinfo id="13" depart="18003.00" departLane="90077241_0" departPos="5.10" departSpeed="0.00" departDelay="3.00" arrival="18747.00" arrivalLane="90077241_0" arrivalPos="3225.35" arrivalSpeed="31.94" duration="744.00" routeLength="12752.38" waitingTime="147.00" waitingCount="6" stopTime="3.00" timeLoss="221.45" rerouteNo="1" devices="vehroute_13 tripinfo_13 emissions_13" vType="vecType" speedFactor="1.12" vaporized="">
        <emissions CO_abs="76745.745629" CO2_abs="3522155.167434" HC_abs="436.523491" PMx_abs="78.842482" NOx_abs="1387.476793" fuel_abs="1123413.453807" electricity_abs="0"/>
    </tripinfo>
    <tripinfo id="20" depart="18000.00" departLane="123867455_0" departPos="5.10" departSpeed="0.00" departDelay="0.00" arrival="18748.00" arrivalLane="123867455_0" arrivalPos="904.85" arrivalSpeed="29.41" duration="748.00" routeLength="6690.85" waitingTime="219.00" waitingCount="10" stopTime="3.00" timeLoss="309.43" rerouteNo="1" devices="vehroute_20 tripinfo_20 emissions_20" vType="vecType" speedFactor="1.02" vaporized="">
        <emissions CO_abs="64910.634342" CO2_abs="2418735.444314" HC_abs="353.016026" PMx_abs="48.011039" NOx_abs="993.119636" fuel_abs="771479.445770" electricity_abs="0"/>
    </tripinfo>
    <tripinfo id="63" depart="18063.00" departLane="-204967525_0" departPos="5.10" departSpeed="0.00" departDelay="3.00" arrival="18748.00" arrivalLane="-204967525_1" arrivalPos="146.26" arrivalSpeed="10.90" duration="685.00" routeLength="4830.14" waitingTime="147.00" waitingCount="9" stopTime="3.00" timeLoss="244.14" rerouteNo="1" devices="vehroute_63 tripinfo_63 emissions_63" vType="vecType" speedFactor="0.99" vaporized="">
        <emissions CO_abs="45721.447156" CO2_abs="1636342.349798" HC_abs="245.981928" PMx_abs="28.806515" NOx_abs="670.694422" fuel_abs="521931.042313" electricity_abs="0"/>
    </tripinfo>
    <tripinfo id="77" depart="18120.00" departLane="90077241_0" departPos="5.10" departSpeed="0.00" departDelay="0.00" arrival="18750.00" arrivalLane="90077241_0" arrivalPos="3225.35" arrivalSpeed="28.27" duration="630.00" routeLength="11810.95" waitingTime="54.00" waitingCount="4" stopTime="3.00" timeLoss="117.82" rerouteNo="1" devices="vehroute_77 tripinfo_77 emissions_77" vType="vecType" speedFactor="0.98" vaporized="">
        <emissions CO_abs="46092.661777" CO2_abs="2792379.697802" HC_abs="277.757619" PMx_abs="57.759958" NOx_abs="1070.139373" fuel_abs="890642.773808" electricity_abs="0"/>
    </tripinfo>
    <tripinfo id="15" depart="18000.00" departLane="-24310636#2_0" departPos="5.10" departSpeed="0.00" departDelay="0.00" arrival="18754.00" arrivalLane="-24310636#2_1" arrivalPos="108.36" arrivalSpeed="9.79" duration="754.00" routeLength="6010.81" waitingTime="142.00" waitingCount="8" stopTime="3.00" timeLoss="230.88" rerouteNo="1" devices="vehroute_15 tripinfo_15 emissions_15" vType="vecType" speedFactor="0.93" vaporized="">
        <emissions CO_abs="48252.968246" CO2_abs="1903884.692615" HC_abs="263.506361" PMx_abs="33.367589" NOx_abs="772.492542" fuel_abs="607264.321881" electricity_abs="0"/>
    </tripinfo>
    <tripinfo id="33" depart="18000.00" departLane="144489137#0_0" departPos="5.10" departSpeed="0.00" departDelay="0.00" arrival="18781.00" arrivalLane="144489137#0_0" arrivalPos="135.49" arrivalSpeed="13.08" duration="781.00" routeLength="3872.00" waitingTime="383.00" waitingCount="14" stopTime="3.00" timeLoss="485.20" rerouteNo="1" devices="vehroute_33 tripinfo_33 emissions_33" vType="vecType" speedFactor="1.17" vaporized="">
        <emissions CO_abs="82091.273235" CO2_abs="2148651.255434" HC_abs="422.987517" PMx_abs="44.123700" NOx_abs="917.224316" fuel_abs="685345.141906" electricity_abs="0"/>
    </tripinfo>
    <tripinfo id="82" depart="18123.00" departLane="-133781749_0" departPos="5.10" departSpeed="0.00" departDelay="3.00" arrival="18784.00" arrivalLane="-133781749_0" arrivalPos="138.68" arrivalSpeed="10.79" duration="661.00" routeLength="5499.56" waitingTime="127.00" waitingCount="9" stopTime="3.00" timeLoss="228.60" rerouteNo="1" devices="vehroute_82 tripinfo_82 emissions_82" vType="vecType" speedFactor="1.02" vaporized="">
        <emissions CO_abs="45970.742723" CO2_abs="1869225.761006" HC_abs="252.832440" PMx_abs="34.021361" NOx_abs="764.134836" fuel_abs="596207.471183" electricity_abs="0"/>
    </tripinfo>
    <tripinfo id="56" depart="18066.00" departLane="31129765_0" departPos="5.10" departSpeed="0.00" departDelay="6.00" arrival="18791.00" arrivalLane="31129765_0" arrivalPos="639.51" arrivalSpeed="19.88" duration="725.00" routeLength="6622.27" waitingTime="192.00" waitingCount="6" stopTime="6.00" timeLoss="264.77" rerouteNo="1" devices="vehroute_56 tripinfo_56 emissions_56" vType="vecType" speedFactor="0.90" vaporized="">
        <emissions CO_abs="54848.205530" CO2_abs="2108341.384267" HC_abs="298.293423" PMx_abs="39.898993" NOx_abs="854.590827" fuel_abs="672476.796409" electricity_abs="0"/>
    </tripinfo>
    <tripinfo id="0" depart="18000.00" departLane="84823308_0" departPos="5.10" departSpeed="0.00" departDelay="0.00" arrival="18796.00" arrivalLane="84823308_0" arrivalPos="275.63" arrivalSpeed="11.16" duration="796.00" routeLength="5732.03" waitingTime="216.00" waitingCount="8" stopTime="3.00" timeLoss="308.89" rerouteNo="2" devices="vehroute_0 tripinfo_0 emissions_0" vType="vecType" speedFactor="1.06" vaporized="">
        <emissions CO_abs="57225.846194" CO2_abs="2053875.912202" HC_abs="307.743361" PMx_abs="36.453712" NOx_abs="839.987548" fuel_abs="655108.246813" electricity_abs="0"/>
    </tripinfo>
    <tripinfo id="27" depart="18000.00" departLane="-8916048_0" departPos="5.10" departSpeed="0.00" departDelay="0.00" arrival="18819.00" arrivalLane="-8916048_0" arrivalPos="126.72" arrivalSpeed="10.30" duration="819.00" routeLength="6742.86" waitingTime="145.00" waitingCount="4" stopTime="3.00" timeLoss="238.42" rerouteNo="1" devices="vehroute_27 tripinfo_27 emissions_27" vType="vecType" speedFactor="0.95" vaporized="">
        <emissions CO_abs="49785.336888" CO2_abs="2082884.078286" HC_abs="274.709534" PMx_abs="35.617140" NOx_abs="839.115588" fuel_abs="664357.248998" electricity_abs="0"/>
    </tripinfo>
    <tripinfo id="40" depart="18000.00" departLane="-206679802#4_0" departPos="5.10" departSpeed="0.00" departDelay="0.00" arrival="18825.00" arrivalLane="-206679802#4_0" arrivalPos="292.11" arrivalSpeed="10.27" duration="825.00" routeLength="6024.23" waitingTime="207.00" waitingCount="7" stopTime="3.00" timeLoss="300.20" rerouteNo="2" devices="vehroute_40 tripinfo_40 emissions_40" vType="vecType" speedFactor="1.03" vaporized="">
        <emissions CO_abs="56758.143266" CO2_abs="2084722.308717" HC_abs="306.555011" PMx_abs="36.702347" NOx_abs="851.783397" fuel_abs="664946.496293" electricity_abs="0"/>
    </tripinfo>
    <tripinfo id="2" depart="18000.00" departLane="142972028#1_0" departPos="5.10" departSpeed="0.00" departDelay="0.00" arrival="18848.00" arrivalLane="142972028#1_0" arrivalPos="161.20" arrivalSpeed="10.79" duration="848.00" routeLength="6732.31" waitingTime="186.00" waitingCount="13" stopTime="4.00" timeLoss="306.32" rerouteNo="2" devices="vehroute_2 tripinfo_2 emissions_2" vType="vecType" speedFactor="1.01" vaporized="">
        <emissions CO_abs="59484.577608" CO2_abs="2306370.970968" HC_abs="324.230102" PMx_abs="41.331334" NOx_abs="939.935550" fuel_abs="735641.505279" electricity_abs="0"/>
    </tripinfo>
    <tripinfo id="84" depart="18123.00" departLane="90077241_0" departPos="5.10" departSpeed="0.00" departDelay="3.00" arrival="18849.00" arrivalLane="90077241_0" arrivalPos="3225.35" arrivalSpeed="32.65" duration="726.00" routeLength="12280.95" waitingTime="174.00" waitingCount="6" stopTime="3.00" timeLoss="247.32" rerouteNo="1" devices="vehroute_84 tripinfo_84 emissions_84" vType="vecType" speedFactor="1.15" vaporized="">
        <emissions CO_abs="82422.446972" CO2_abs="3484862.557893" HC_abs="461.724617" PMx_abs="80.315793" NOx_abs="1384.052410" fuel_abs="1111520.487829" electricity_abs="0"/>
    </tripinfo>
    <tripinfo id="24" depart="18003.00" departLane="123867455_0" departPos="5.10" departSpeed="0.00" departDelay="3.00" arrival="18860.00" arrivalLane="123867455_0" arrivalPos="904.85" arrivalSpeed="23.25" duration="857.00" routeLength="6219.34" waitingTime="228.00" waitingCount="10" stopTime="3.00" timeLoss="335.55" rerouteNo="2" devices="vehroute_24 tripinfo_24 emissions_24" vType="vecType" speedFactor="0.83" vaporized="">
        <emissions CO_abs="68841.164591" CO2_abs="2297942.611091" HC_abs="366.284044" PMx_abs="43.345688" NOx_abs="938.417138" fuel_abs="732957.423586" electricity_abs="0"/>
    </tripinfo>
    <tripinfo id="64" depart="18060.00" departLane="28319343#2_0" departPos="5.10" departSpeed="0.00" departDelay="0.00" arrival="18872.00" arrivalLane="28319343#2_0" arrivalPos="90.58" arrivalSpeed="9.58" duration="812.00" routeLength="9974.14" waitingTime="207.00" waitingCount="9" stopTime="3.00" timeLoss="282.10" rerouteNo="2" devices="vehroute_64 tripinfo_64 emissions_64" vType="vecType" speedFactor="0.94" vaporized="">
        <emissions CO_abs="64273.475926" CO2_abs="2726604.664660" HC_abs="356.681681" PMx_abs="54.264079" NOx_abs="1077.550029" fuel_abs="869674.429847" electricity_abs="0"/>
    </tripinfo>
    <tripinfo id="9" depart="18000.00" departLane="23959829#0_0" departPos="5.10" departSpeed="0.00" departDelay="0.00" arrival="18876.00" arrivalLane="23959829#0_0" arrivalPos="45.86" arrivalSpeed="9.32" duration="876.00" routeLength="6745.88" waitingTime="135.00" waitingCount="7" stopTime="3.00" timeLoss="232.93" rerouteNo="2" devices="vehroute_9 tripinfo_9 emissions_9" vType="vecType" speedFactor="0.86" vaporized="">
        <emissions CO_abs="51259.620923" CO2_abs="2070593.949571" HC_abs="280.533745" PMx_abs="34.469168" NOx_abs="832.024827" fuel_abs="660438.988722" electricity_abs="0"/>
    </tripinfo>
    <tripinfo id="12" depart="18000.00" departLane="-23883761_0" departPos="5.10" departSpeed="0.00" departDelay="0.00" arrival="18883.00" arrivalLane="-23883761_0" arrivalPos="197.88" arrivalSpeed="11.41" duration="883.00" routeLength="5849.00" waitingTime="272.00" waitingCount="12" stopTime="3.00" timeLoss="379.80" rerouteNo="1" devices="vehroute_12 tripinfo_12 emissions_12" vType="vecType" speedFactor="1.05" vaporized="">
        <emissions CO_abs="68967.686592" CO2_abs="2275061.362253" HC_abs="366.488157" PMx_abs="41.866824" NOx_abs="941.559773" fuel_abs="725659.744922" electricity_abs="0"/>
    </tripinfo>
    <tripinfo id="42" depart="18009.00" departLane="31129765_0" departPos="5.10" departSpeed="0.00" departDelay="9.00" arrival="18890.00" arrivalLane="31129765_0" arrivalPos="639.51" arrivalSpeed="24.32" duration="881.00" routeLength="7763.38" waitingTime="302.00" waitingCount="12" stopTime="3.00" timeLoss="410.44" rerouteNo="1" devices="vehroute_42 tripinfo_42 emissions_42" vType="vecType" speedFactor="1.09" vaporized="">
        <emissions CO_abs="81581.260298" CO2_abs="2903711.511984" HC_abs="439.837441" PMx_abs="59.250047" NOx_abs="1203.033224" fuel_abs="926167.638951" electricity_abs="0"/>
    </tripinfo>
    <tripinfo id="85" depart="18126.00" departLane="90077241_0" departPos="5.10" departSpeed="0.00" departDelay="6.00" arrival="18891.00" arrivalLane="90077241_0" arrivalPos="3225.35" arrivalSpeed="27.97" duration="765.00" routeLength="11984.76" waitingTime="161.00" waitingCount="6" stopTime="3.00" timeLoss="233.01" rerouteNo="1" devices="vehroute_85 tripinfo_85 emissions_85" vType="vecType" speedFactor="0.98" vaporized="">
        <emissions CO_abs="64104.463080" CO2_abs="3105235.683430" HC_abs="366.945996" PMx_abs="64.615699" NOx_abs="1209.173295" fuel_abs="990436.127442" electricity_abs="0"/>
    </tripinfo>
    <tripinfo id="29" depart="18000.00" departLane="-35977367#2_0" departPos="5.10" departSpeed="0.00" departDelay="0.00" arrival="18895.00" arrivalLane="-35977367#2_0" arrivalPos="431.73" arrivalSpeed="9.37" duration="895.00" routeLength="6070.29" waitingTime="213.00" waitingCount="7" stopTime="3.00" timeLoss="308.13" rerouteNo="2" devices="vehroute_29 tripinfo_29 emissions_29" vType="vecType" speedFactor="0.93" vaporized="">
        <emissions CO_abs="61389.723481" CO2_abs="2162306.134521" HC_abs="329.273970" PMx_abs="37.257749" NOx_abs="882.425139" fuel_abs="689694.920563" electricity_abs="0"/>
    </tripinfo>
    <tripinfo id="99" depart="18180.00" departLane="-27029204_0" departPos="5.10" departSpeed="0.00" departDelay="0.00" arrival="18919.00" arrivalLane="-27029204_0" arrivalPos="195.60" arrivalSpeed="11.36" duration="739.00" routeLength="5700.35" waitingTime="222.00" waitingCount="10" stopTime="3.00" timeLoss="321.12" rerouteNo="1" devices="vehroute_99 tripinfo_99 emissions_99" vType="vecType" speedFactor="1.10" vaporized="">
        <emissions CO_abs="60544.730582" CO2_abs="2156116.916898" HC_abs="325.819090" PMx_abs="41.435175" NOx_abs="893.161555" fuel_abs="687716.561096" electricity_abs="0"/>
    </tripinfo>
    <tripinfo id="53" depart="18060.00" departLane="-27029200#2_0" departPos="5.10" departSpeed="0.00" departDelay="0.00" arrival="18930.00" arrivalLane="-27029200#2_0" arrivalPos="66.62" arrivalSpeed="11.37" duration="870.00" routeLength="6523.13" waitingTime="268.00" waitingCount="12" stopTime="3.00" timeLoss="383.90" rerouteNo="1" devices="vehroute_53 tripinfo_53 emissions_53" vType="vecType" speedFactor="1.10" vaporized="">
        <emissions CO_abs="71580.214232" CO2_abs="2473222.706299" HC_abs="383.155805" PMx_abs="47.303110" NOx_abs="1025.744617" fuel_abs="788862.247074" electricity_abs="0"/>
    </tripinfo>
    <tripinfo id="88" depart="18123.00" departLane="31129765_0" departPos="5.10" departSpeed="0.00" departDelay="3.00" arrival="18931.00" arrivalLane="31129765_0" arrivalPos="639.51" arrivalSpeed="21.28" duration="808.00" routeLength="6946.37" waitingTime="273.00" waitingCount="9" stopTime="3.00" timeLoss="370.94" rerouteNo="1" devices="vehroute_88 tripinfo_88 emissions_88" vType="vecType" speedFactor="1.01" vaporized="">
        <emissions CO_abs="72798.204383" CO2_abs="2531714.345811" HC_abs="390.977292" PMx_abs="50.781326" NOx_abs="1043.841728" fuel_abs="807517.409298" electricity_abs="0"/>
    </tripinfo>
    <tripinfo id="22" depart="18000.00" departLane="27398045#1_0" departPos="5.10" departSpeed="0.00" departDelay="0.00" arrival="18936.00" arrivalLane="27398045#1_0" arrivalPos="122.17" arrivalSpeed="9.86" duration="936.00" routeLength="6484.53" waitingTime="237.00" waitingCount="8" stopTime="3.00" timeLoss="340.18" rerouteNo="2" devices="vehroute_22 tripinfo_22 emissions_22" vType="vecType" speedFactor="0.97" vaporized="">
        <emissions CO_abs="65535.833573" CO2_abs="2277703.602770" HC_abs="350.949523" PMx_abs="40.195090" NOx_abs="933.776454" fuel_abs="726502.036119" electricity_abs="0"/>
    </tripinfo>
    <tripinfo id="43" depart="18012.00" departLane="123867455_0" departPos="5.10" departSpeed="0.00" departDelay="12.00" arrival="18956.00" arrivalLane="123867455_0" arrivalPos="904.85" arrivalSpeed="29.15" duration="944.00" routeLength="8280.56" waitingTime="233.00" waitingCount="12" stopTime="3.00" timeLoss="368.33" rerouteNo="2" devices="vehroute_43 tripinfo_43 emissions_43" vType="vecType" speedFactor="1.04" vaporized="">
        <emissions CO_abs="74084.644926" CO2_abs="2904574.040252" HC_abs="405.382386" PMx_abs="55.902390" NOx_abs="1192.132692" fuel_abs="926441.036092" electricity_abs="0"/>
    </tripinfo>
    <tripinfo id="90" depart="18120.00" departLane="-254758120#3_0" departPos="5.10" departSpeed="0.00" departDelay="0.00" arrival="18956.00" arrivalLane="-254758120#3_0" arrivalPos="147.41" arrivalSpeed="11.13" duration="836.00" routeLength="5221.94" waitingTime="286.00" waitingCount="11" stopTime="3.00" timeLoss="373.52" rerouteNo="1" devices="vehroute_90 tripinfo_90 emissions_90" vType="vecType" speedFactor="1.02" vaporized="">
        <emissions CO_abs="67564.305245" CO2_abs="2053781.905246" HC_abs="355.152533" PMx_abs="38.224049" NOx_abs="853.531599" fuel_abs="655082.649736" electricity_abs="0"/>
    </tripinfo>
    <tripinfo id="3" depart="18000.00" departLane="-133781749_0" departPos="5.10" departSpeed="0.00" departDelay="0.00" arrival="18957.00" arrivalLane="-133781749_0" arrivalPos="138.68" arrivalSpeed="11.01" duration="957.00" routeLength="7501.04" waitingTime="264.00" waitingCount="14" stopTime="3.00" timeLoss="385.58" rerouteNo="1" devices="vehroute_3 tripinfo_3 emissions_3" vType="vecType" speedFactor="1.08" vaporized="">
        <emissions CO_abs="73019.318146" CO2_abs="2692277.154117" HC_abs="394.643158" PMx_abs="50.018372" NOx_abs="1106.795444" fuel_abs="858730.775311" electricity_abs="0"/>
    </tripinfo>
    <tripinfo id="23" depart="18000.00" departLane="133733582#2_0" departPos="5.10" departSpeed="0.00" departDelay="0.00" arrival="18958.00" arrivalLane="133733582#2_0" arrivalPos="149.99" arrivalSpeed="8.70" duration="958.00" routeLength="6926.78" waitingTime="211.00" waitingCount="10" stopTime="3.00" timeLoss="320.29" rerouteNo="1" devices="vehroute_23 tripinfo_23 emissions_23" vType="vecType" speedFactor="0.89" vaporized="">
        <emissions CO_abs="65293.632370" CO2_abs="2341469.794946" HC_abs="350.878116" PMx_abs="41.186972" NOx_abs="954.835078" fuel_abs="746840.025871" electricity_abs="0"/>
    </tripinfo>