<?xml version="1.0" encoding="UTF-8"?>

<!-- generated on 2022-12-20 12:02:35 by Eclipse SUMO sumo Version 1.14.1
<configuration xmlns:xsi="http://www.w3.org/2001/XMLSchema-instance" xsi:noNamespaceSchemaLocation="http://sumo.dlr.de/xsd/sumoConfiguration.xsd">

    <input>
        <net-file value="./strategia3_config/../san_francisco.net.xml"/>
        <route-files value="./strategia3_config/../san_francisco.rou.xml"/>
        <additional-files value="./strategia3_config/../san_francisco.poly.xml,./strategia3_config/../parking_capacity_100%25/off_parking_100%25.add.xml,./strategia3_config/../parking_capacity_100%25/on_parking_100%25.add.xml"/>
    </input>

    <output>
        <emission-output value="./strategia3_config/../output/strategia3/100%25/emissions.xml"/>
        <tripinfo-output value="./strategia3_config/../output/strategia3/100%25/tripinfo.xml"/>
        <vehroute-output value="./strategia3_config/../output/strategia3/100%25/vehroute.xml"/>
        <stop-output value="./strategia3_config/../output/strategia3/100%25/stops.xml"/>
        <collision-output value="./strategia3_config/../output/strategia3/100%25/collision.xml"/>
        <statistic-output value="./strategia3_config/../output/strategia3/100%25/statistic.xml"/>
    </output>

    <time>
        <step-length value="1"/>
    </time>

    <processing>
        <ignore-route-errors value="false"/>
        <time-to-teleport value="-1"/>
    </processing>

    <report>
        <verbose value="true"/>
        <xml-validation value="never"/>
    </report>

    <traci_server>
        <remote-port value="49553"/>
    </traci_server>

    <gui_only>
        <gui-settings-file value="./strategia3_config/../gui-settings.cfg"/>
        <start value="true"/>
    </gui_only>

</configuration>
-->

<tripinfos xmlns:xsi="http://www.w3.org/2001/XMLSchema-instance" xsi:noNamespaceSchemaLocation="http://sumo.dlr.de/xsd/tripinfo_file.xsd">
    <tripinfo id="4" depart="18000.00" departLane="142972028#1_0" departPos="5.10" departSpeed="0.00" departDelay="0.00" arrival="19296.00" arrivalLane="142972028#1_0" arrivalPos="161.20" arrivalSpeed="10.67" duration="1296.00" routeLength="9246.39" waitingTime="402.00" waitingCount="19" stopTime="3.00" timeLoss="568.50" rerouteNo="4" devices="vehroute_4 tripinfo_4 emissions_4" vType="vecType" speedFactor="1.06" vaporized="">
        <emissions CO_abs="104978.971909" CO2_abs="3550942.669950" HC_abs="560.420007" PMx_abs="67.325801" NOx_abs="1472.994182" fuel_abs="1132614.973318" electricity_abs="0"/>
    </tripinfo>
    <tripinfo id="26" depart="18000.00" departLane="-24310636#2_0" departPos="5.10" departSpeed="0.00" departDelay="0.00" arrival="19353.00" arrivalLane="-24310636#2_1" arrivalPos="108.36" arrivalSpeed="9.62" duration="1353.00" routeLength="7673.05" waitingTime="499.00" waitingCount="15" stopTime="3.00" timeLoss="617.74" rerouteNo="4" devices="vehroute_26 tripinfo_26 emissions_26" vType="vecType" speedFactor="0.94" vaporized="">
        <emissions CO_abs="113280.595354" CO2_abs="3204565.726696" HC_abs="589.706760" PMx_abs="59.557056" NOx_abs="1334.494672" fuel_abs="1022146.155862" electricity_abs="0"/>
    </tripinfo>
</tripinfos>
