<?xml version="1.0" encoding="UTF-8"?>

<!-- generated on 2023-01-02 12:23:36 by Eclipse SUMO sumo Version 1.14.1
<configuration xmlns:xsi="http://www.w3.org/2001/XMLSchema-instance" xsi:noNamespaceSchemaLocation="http://sumo.dlr.de/xsd/sumoConfiguration.xsd">

    <input>
        <net-file value="./strategia3_config/../san_francisco.net.xml"/>
        <route-files value="./strategia3_config/../san_francisco.rou.xml"/>
        <additional-files value="./strategia3_config/../san_francisco.poly.xml,./strategia3_config/../parking_capacity_100%25/off_parking_100%25.add.xml,./strategia3_config/../parking_capacity_100%25/on_parking_100%25.add.xml"/>
    </input>

    <output>
        <emission-output value="./strategia3_config/../output/strategia3/100%25/emissions.xml"/>
        <tripinfo-output value="./strategia3_config/../output/strategia3/100%25/tripinfo.xml"/>
        <vehroute-output value="./strategia3_config/../output/strategia3/100%25/vehroute.xml"/>
        <stop-output value="./strategia3_config/../output/strategia3/100%25/stops.xml"/>
        <collision-output value="./strategia3_config/../output/strategia3/100%25/collision.xml"/>
        <statistic-output value="./strategia3_config/../output/strategia3/100%25/statistic.xml"/>
    </output>

    <time>
        <step-length value="1"/>
    </time>

    <processing>
        <ignore-route-errors value="false"/>
    </processing>

    <report>
        <verbose value="true"/>
        <xml-validation value="never"/>
    </report>

    <traci_server>
        <remote-port value="64120"/>
    </traci_server>

    <gui_only>
        <gui-settings-file value="./strategia3_config/../gui-settings.cfg"/>
        <start value="true"/>
    </gui_only>

</configuration>
-->

<routes xmlns:xsi="http://www.w3.org/2001/XMLSchema-instance" xsi:noNamespaceSchemaLocation="http://sumo.dlr.de/xsd/routes_file.xsd">
    <vehicle id="301" type="vecType" depart="19800.00" arrival="20390.00">
        <routeDistribution>
            <route replacedOnEdge="254299122" replacedOnIndex="16" reason="traci:setRoute" replacedAtTime="20007.00" probability="0" edges="-191296172#2 191296172#1 25657409#0 25657409#2 25657409#3 25657409#4 25657409#5 25657409#7 25657409#9 25657409#10 25657409#11 8919872#0 8919872#1 254305033#4 254305033#5 8915588 254299122 154966358"/>
            <route replacedOnEdge="8916215" replacedOnIndex="25" reason="traci:changeTarget" replacedAtTime="20109.00" probability="0" edges="-191296172#2 191296172#1 25657409#0 25657409#2 25657409#3 25657409#4 25657409#5 25657409#7 25657409#9 25657409#10 25657409#11 8919872#0 8919872#1 254305033#4 254305033#5 8915588 254299122 154966358 gneE27 31129765 123741465 8915117 8915115#0 8915115#1 254299118#0 8916215 -247966218#3 -247966218#2 27167281#0 -27167281#1"/>
            <route edges="-191296172#2 191296172#1 25657409#0 25657409#2 25657409#3 25657409#4 25657409#5 25657409#7 25657409#9 25657409#10 25657409#11 8919872#0 8919872#1 254305033#4 254305033#5 8915588 254299122 154966358 gneE27 31129765 123741465 8915117 8915115#0 8915115#1 254299118#0 8916215 -247966218#3 -247966218#2 -26943758#1 162931810 256787755#0 254299121#8 254299121#9 25758513 27029246 -191296172#2"/>
        </routeDistribution>
        <stop parkingArea="parkingArea_8916215_0_789" duration="100.00" parking="1"/>
    </vehicle>

    <vehicle id="302" type="vecType" depart="19800.00" arrival="20510.00">
        <routeDistribution>
            <route replacedOnEdge="50690291#0" replacedOnIndex="5" reason="traci:setRoute" replacedAtTime="19868.00" probability="0" edges="-254758139#0 26779600 123741454#3 123741452 202317709 50690291#0 50690291#1"/>
            <route replacedOnEdge="-35675861#0" replacedOnIndex="12" reason="traci:changeTarget" replacedAtTime="20141.00" probability="0" edges="-254758139#0 26779600 123741454#3 123741452 202317709 50690291#0 50690291#1 gneE4 90077241 8921938 120813417 31129372 -35675861#0 -35675862 99231466 -175129396#1 -43100046 8917778 174822357#0 255330036#13"/>
            <route edges="-254758139#0 26779600 123741454#3 123741452 202317709 50690291#0 50690291#1 gneE4 90077241 8921938 120813417 31129372 -35675861#0 35675861#0 35675861#1 283537552#0 283537552#1 283537644#0 283537644#2 88559702#0 88559702#1 88559702#2 25758528#0 25758528#1 143617584 143617593 254758139#0 -254758139#0"/>
        </routeDistribution>
        <stop parkingArea="parkingArea_-35675861#0_0_462" duration="100.00" parking="1"/>
    </vehicle>

    <vehicle id="306" type="vecType" depart="19800.00" arrival="20628.00">
        <routeDistribution>
            <route replacedOnEdge="254297763#6" replacedOnIndex="14" reason="traci:setRoute" replacedAtTime="20139.00" probability="0" edges="204884387#0 144489134#0 144489134#2 144489134#3 290080809#0 290080809#4 84654238#0 84654238#3 28841121#4 254297763#0 254297763#1 254297763#2 254297763#3 254297763#4 254297763#6 254297763#7"/>
            <route replacedOnEdge="86303763#1" replacedOnIndex="18" reason="traci:changeTarget" replacedAtTime="20181.00" probability="0" edges="204884387#0 144489134#0 144489134#2 144489134#3 290080809#0 290080809#4 84654238#0 84654238#3 28841121#4 254297763#0 254297763#1 254297763#2 254297763#3 254297763#4 254297763#6 254297763#7 gneE10 86303763#0 86303763#1 254759937#0 254759938#0 254396707#8"/>
            <route edges="204884387#0 144489134#0 144489134#2 144489134#3 290080809#0 290080809#4 84654238#0 84654238#3 28841121#4 254297763#0 254297763#1 254297763#2 254297763#3 254297763#4 254297763#6 254297763#7 gneE10 86303763#0 86303763#1 86303763#2 86303763#4 86303763#5 86303763#6 86303763#10 86303763#11 86303763#14 86303763#17 111586257 28841123#0 224316522#0 133733590#0 204884387#0"/>
        </routeDistribution>
        <stop parkingArea="parkingArea_86303763#1_0_669" duration="100.00" parking="1"/>
    </vehicle>

    <vehicle id="318" type="vecType" depart="19980.00" arrival="20713.00">
        <routeDistribution>
            <route replacedOnEdge="50690291#0" replacedOnIndex="10" reason="traci:setRoute" replacedAtTime="20138.00" probability="0" edges="-88572970 -256400251#1 256400244#0 225432457 -99231486 364480601#0 283537380#0 283537380#1 283537380#2 8915351 50690291#0 50690291#1"/>
            <route replacedOnEdge="-35675861#0" replacedOnIndex="17" reason="traci:changeTarget" replacedAtTime="20431.00" probability="0" edges="-88572970 -256400251#1 256400244#0 225432457 -99231486 364480601#0 283537380#0 283537380#1 283537380#2 8915351 50690291#0 50690291#1 gneE4 90077241 8921938 120813417 31129372 -35675861#0 -35675862 27397692"/>
            <route edges="-88572970 -256400251#1 256400244#0 225432457 -99231486 364480601#0 283537380#0 283537380#1 283537380#2 8915351 50690291#0 50690291#1 gneE4 90077241 8921938 120813417 31129372 -35675861#0 35675861#0 8922307 364480069 364480068#0 364480068#1 364480068#2 88572970 -88572970"/>
        </routeDistribution>
        <stop parkingArea="parkingArea_-35675861#0_0_462" duration="100.00" parking="1"/>
    </vehicle>

    <vehicle id="314" type="vecType" depart="19920.00" arrival="20726.00">
        <routeDistribution>
            <route replacedOnEdge="254299122" replacedOnIndex="20" reason="traci:setRoute" replacedAtTime="20235.00" probability="0" edges="144489137#7 254758125#0 277480563#0 277480563#1 277480563#2 254759927#0 254759927#1 111547662#0 88572901#0 264874017#0 264874017#3 264874017#4 264874017#5 254305033#0 254305033#1 254305033#2 254305033#3 254305033#4 254305033#5 8915588 254299122 154966358"/>
            <route replacedOnEdge="254299118#0" replacedOnIndex="28" reason="traci:changeTarget" replacedAtTime="20321.00" probability="0" edges="144489137#7 254758125#0 277480563#0 277480563#1 277480563#2 254759927#0 254759927#1 111547662#0 88572901#0 264874017#0 264874017#3 264874017#4 264874017#5 254305033#0 254305033#1 254305033#2 254305033#3 254305033#4 254305033#5 8915588 254299122 154966358 gneE27 31129765 123741465 8915117 8915115#0 8915115#1 254299118#0 8916215 -247966218#3 -247966218#2 27167281#0 -27167281#1"/>
            <route edges="144489137#7 254758125#0 277480563#0 277480563#1 277480563#2 254759927#0 254759927#1 111547662#0 88572901#0 264874017#0 264874017#3 264874017#4 264874017#5 254305033#0 254305033#1 254305033#2 254305033#3 254305033#4 254305033#5 8915588 254299122 154966358 gneE27 31129765 123741465 8915117 8915115#0 8915115#1 254299118#0 254299118#1 254299118#2 254299118#3 -254305050#1 -254305050#0 -264874017#5 -264874017#4 -264874017#3 -264874017#2 -88572901#2 -111547662#2 26938124#0 26938124#1 26938124#2 26938124#3 27400639#2 277480564 254758126#0 144489137#7"/>
        </routeDistribution>
        <stop parkingArea="parkingArea_254299118#0_0_1350" duration="100.00" parking="1"/>
    </vehicle>

    <vehicle id="311" type="vecType" depart="19860.00" arrival="20747.00">
        <routeDistribution>
            <route replacedOnEdge="50690291#0" replacedOnIndex="10" reason="traci:setRoute" replacedAtTime="20049.00" probability="0" edges="204884387#0 -204884387#2 -224384019#1 88597577#0 88559691#0 88559691#4 225518502#0 329607867 27772070 202317709 50690291#0 50690291#1"/>
            <route replacedOnEdge="-35675861#0" replacedOnIndex="17" reason="traci:changeTarget" replacedAtTime="20317.00" probability="0" edges="204884387#0 -204884387#2 -224384019#1 88597577#0 88559691#0 88559691#4 225518502#0 329607867 27772070 202317709 50690291#0 50690291#1 gneE4 90077241 8921938 120813417 31129372 -35675861#0 -35675862 99231466 -175129396#1 27398032#3"/>
            <route edges="204884387#0 -204884387#2 -224384019#1 88597577#0 88559691#0 88559691#4 225518502#0 329607867 27772070 202317709 50690291#0 50690291#1 gneE4 90077241 8921938 120813417 31129372 -35675861#0 35675861#0 8922307 364480069 364480068#0 364480068#1 364480068#2 88572881#0 305585433 228186482#0 204884378#0 225719777#0 224200967 224384019#0 204884387#0"/>
        </routeDistribution>
        <stop parkingArea="parkingArea_-35675861#0_0_462" duration="100.00" parking="1"/>
    </vehicle>

    <vehicle id="317" type="vecType" depart="19920.00" arrival="20806.00">
        <routeDistribution>
            <route replacedOnEdge="27029200#2" replacedOnIndex="27" reason="traci:changeTarget" replacedAtTime="20269.00" probability="0" edges="225518502#2 8919403#0 283537644#0 283537644#2 88559702#0 88559702#1 88559702#2 25758528#0 25758528#1 143617584 143617585#0 143617585#1 143617585#2 254305033#0 254305033#1 254305033#2 254305033#3 254305033#4 254305033#5 254299121#0 254299121#1 254299121#5 254299121#6 254299121#8 254299121#9 25758513 27029200#0 27029200#2"/>
            <route edges="225518502#2 8919403#0 283537644#0 283537644#2 88559702#0 88559702#1 88559702#2 25758528#0 25758528#1 143617584 143617585#0 143617585#1 143617585#2 254305033#0 254305033#1 254305033#2 254305033#3 254305033#4 254305033#5 254299121#0 254299121#1 254299121#5 254299121#6 254299121#8 254299121#9 25758513 27029200#0 27029200#2 -27029200#2 -27029200#1 -25758513 27029265#3 186400366#0 186400366#1 186400366#2 186400366#5 186400366#6 8915123 123741454#1 8915415 143666207#0 254299142#0 254299142#1 254299142#2 -88559702#2 -88559702#1 -88559702#0 -225518512#1 225518502#0 225518502#2"/>
        </routeDistribution>
        <stop parkingArea="parkingArea_27029200#2_0_964" duration="100.00" parking="1"/>
    </vehicle>

    <vehicle id="326" type="vecType" depart="20100.00" arrival="20808.00">
        <routeDistribution>
            <route replacedOnEdge="50690291#0" replacedOnIndex="10" reason="traci:setRoute" replacedAtTime="20355.00" probability="0" edges="88466052#1 8916922#0 24335490#0 88463829#0 88466055#0 88466055#1 99231468#0 35675861#0 35675861#1 8915351 50690291#0 50690291#1"/>
            <route replacedOnEdge="-35675861#0" replacedOnIndex="17" reason="traci:changeTarget" replacedAtTime="20592.00" probability="0" edges="88466052#1 8916922#0 24335490#0 88463829#0 88466055#0 88466055#1 99231468#0 35675861#0 35675861#1 8915351 50690291#0 50690291#1 gneE4 90077241 8921938 120813417 31129372 -35675861#0 -35675862 27397692"/>
            <route edges="88466052#1 8916922#0 24335490#0 88463829#0 88466055#0 88466055#1 99231468#0 35675861#0 35675861#1 8915351 50690291#0 50690291#1 gneE4 90077241 8921938 120813417 31129372 -35675861#0 -35675862 -88466055#1 -88466055#0 -8917425 88466052#0 88466052#1"/>
        </routeDistribution>
        <stop parkingArea="parkingArea_-35675861#0_0_462" duration="100.00" parking="1"/>
    </vehicle>

    <vehicle id="313" type="vecType" depart="19920.00" arrival="20817.00">
        <routeDistribution>
            <route replacedOnEdge="255330070#3" replacedOnIndex="24" reason="traci:setRoute" replacedAtTime="20309.00" probability="0" edges="-111089307#4 111089307#4 -27029200#1 -25758513 27029265#3 186400366#0 186400366#1 186400366#2 247960234#1 247966218#0 247966218#3 247966218#4 247966218#5 247966218#6 247966218#7 247966218#8 141688972#0 141688972#1 162931811#0 162931811#1 143617587 26943653#0 52432939 255330070#0 255330070#3 52432936#0"/>
            <route replacedOnEdge="37177789#0" replacedOnIndex="28" reason="traci:changeTarget" replacedAtTime="20357.00" probability="0" edges="-111089307#4 111089307#4 -27029200#1 -25758513 27029265#3 186400366#0 186400366#1 186400366#2 247960234#1 247966218#0 247966218#3 247966218#4 247966218#5 247966218#6 247966218#7 247966218#8 141688972#0 141688972#1 162931811#0 162931811#1 143617587 26943653#0 52432939 255330070#0 255330070#3 52432936#0 -160313263#1 52432938#0 37177789#0"/>
            <route edges="-111089307#4 111089307#4 -27029200#1 -25758513 27029265#3 186400366#0 186400366#1 186400366#2 247960234#1 247966218#0 247966218#3 247966218#4 247966218#5 247966218#6 247966218#7 247966218#8 141688972#0 141688972#1 162931811#0 162931811#1 143617587 26943653#0 52432939 255330070#0 255330070#3 52432936#0 -160313263#1 52432938#0 37177789#0 -133755930#0 -27656675 26943623 133735130#0 133735130#2 133735130#4 254299142#0 254299142#1 254299142#2 25758528#0 25758528#1 8915151 31129732#1 26779355 8915704#0 8915704#1 254299121#6 254299121#8 254299121#9 25758513 27029200#0 -111089307#4"/>
        </routeDistribution>
        <stop parkingArea="parkingArea_37177789#0_0_124" duration="100.00" parking="1"/>
    </vehicle>

    <vehicle id="307" type="vecType" depart="19860.00" arrival="20832.00">
        <routeDistribution>
            <route replacedOnEdge="255330047#0" replacedOnIndex="21" reason="traci:setRoute" replacedAtTime="20462.00" probability="0" edges="47172109#0 25657409#9 25657409#10 25657409#11 25657409#12 25657409#13 25657409#14 25657409#15 25657409#16 25657409#17 25657409#18 214545530#3 214545530#4 214545530#7 143617593 254758139#0 254758139#1 162931811#0 162931811#1 143617587 26943653#0 255330047#0 30454437"/>
            <route replacedOnEdge="141688972#1" replacedOnIndex="26" reason="traci:changeTarget" replacedAtTime="20582.00" probability="0" edges="47172109#0 25657409#9 25657409#10 25657409#11 25657409#12 25657409#13 25657409#14 25657409#15 25657409#16 25657409#17 25657409#18 214545530#3 214545530#4 214545530#7 143617593 254758139#0 254758139#1 162931811#0 162931811#1 143617587 26943653#0 255330047#0 30454437 gneE21 22277701 141688972#0 141688972#1 141688972#2"/>
            <route edges="47172109#0 25657409#9 25657409#10 25657409#11 25657409#12 25657409#13 25657409#14 25657409#15 25657409#16 25657409#17 25657409#18 214545530#3 214545530#4 214545530#7 143617593 254758139#0 254758139#1 162931811#0 162931811#1 143617587 26943653#0 255330047#0 30454437 gneE21 22277701 141688972#0 141688972#1 -141688972#1 -141688972#0 -254308553 -254305050#1 -8920435 8920452#1 254305033#2 254305033#3 254305033#4 254305033#5 254299121#0 47172109#0"/>
        </routeDistribution>
        <stop parkingArea="parkingArea_141688972#1_0_799" duration="100.00" parking="1"/>
    </vehicle>

    <vehicle id="319" type="vecType" depart="20040.00" arrival="20899.00">
        <routeDistribution>
            <route replacedOnEdge="254297762#1" replacedOnIndex="36" reason="traci:changeTarget" replacedAtTime="20354.00" probability="0" edges="8919179#1 -8919179#1 254756521#3 254756521#5 254756521#6 32931798#3 27146036#0 27146036#1 27146036#2 91181772#0 27054195#0 8922640#0 254971056#0 91185877#0 91185877#1 30030101#0 30030101#1 87376669 48211487#0 48211487#1 48211487#2 48211828 254756518 148874363#0 148874364#0 148874364#1 148874364#3 30029708#0 30029708#1 30029708#2 30029866#0 30029866#2 88396403 -27570798#4 255168048#4 254297762#0 254297762#1"/>
            <route edges="8919179#1 -8919179#1 254756521#3 254756521#5 254756521#6 32931798#3 27146036#0 27146036#1 27146036#2 91181772#0 27054195#0 8922640#0 254971056#0 91185877#0 91185877#1 30030101#0 30030101#1 87376669 48211487#0 48211487#1 48211487#2 48211828 254756518 148874363#0 148874364#0 148874364#1 148874364#3 30029708#0 30029708#1 30029708#2 30029866#0 30029866#2 88396403 -27570798#4 255168048#4 254297762#0 254297762#1 -254297762#2 -254297762#0 -255168048#4 -255168048#3 34128718#1 -254299113#2 143666209#2 143666209#3 143666209#4 143666209#6 91185870#0 91185870#1 -30029708#0 30030100#0 30030100#2 148846995 148846996#0 148846996#1 148846996#2 -48211487#2 -48211487#1 -48211487#0 48211960 87376672#0 87376672#1 -91185877#1 -91185877#0 -254971056#1 -8922640#1 27054205#0 27054205#1 27054209#0 254971055 27398048#0 27398048#4 27398048#2 254756517 -8919179#1 8919179#1"/>
        </routeDistribution>
        <stop parkingArea="parkingArea_254297762#1_0_1204" duration="100.00" parking="1"/>
    </vehicle>

    <vehicle id="303" type="vecType" depart="19800.00" arrival="20907.00">
        <routeDistribution>
            <route replacedOnEdge="88463827#0" replacedOnIndex="40" reason="traci:setRoute" replacedAtTime="20141.00" probability="0" edges="-204967525 -87297168 30029867#0 30029867#1 30029867#2 -30029708#2 -30029708#1 -30029708#0 30030100#0 30030100#2 148846995 148846996#0 148846996#1 148846996#2 -48211487#2 -48211487#1 -48211487#0 48211960 87376672#0 87376672#1 -91185877#1 -91185877#0 -254971056#1 8919205#17 8919205#18 8919205#21 8919205#24 47108420#0 47108420#3 47108420#4 28843496 30758839#0 30758839#1 8922560#0 8922560#1 8922560#3 8922560#4 283512618#0 283512618#3 283512618#5 88463827#0 -8916922#0"/>
            <route replacedOnEdge="8916922#3" replacedOnIndex="44" reason="traci:changeTarget" replacedAtTime="20174.00" probability="0" edges="-204967525 -87297168 30029867#0 30029867#1 30029867#2 -30029708#2 -30029708#1 -30029708#0 30030100#0 30030100#2 148846995 148846996#0 148846996#1 148846996#2 -48211487#2 -48211487#1 -48211487#0 48211960 87376672#0 87376672#1 -91185877#1 -91185877#0 -254971056#1 8919205#17 8919205#18 8919205#21 8919205#24 47108420#0 47108420#3 47108420#4 28843496 30758839#0 30758839#1 8922560#0 8922560#1 8922560#3 8922560#4 283512618#0 283512618#3 283512618#5 88463827#0 -8916922#0 8916922#0 8916922#1 8916922#3 -8916922#4"/>
            <route edges="-204967525 -87297168 30029867#0 30029867#1 30029867#2 -30029708#2 -30029708#1 -30029708#0 30030100#0 30030100#2 148846995 148846996#0 148846996#1 148846996#2 -48211487#2 -48211487#1 -48211487#0 48211960 87376672#0 87376672#1 -91185877#1 -91185877#0 -254971056#1 8919205#17 8919205#18 8919205#21 8919205#24 47108420#0 47108420#3 47108420#4 28843496 30758839#0 30758839#1 8922560#0 8922560#1 8922560#3 8922560#4 283512618#0 283512618#3 283512618#5 88463827#0 -8916922#0 8916922#0 8916922#1 8916922#3 254971064#0 99231463#0 224373751 28319343#0 8916375#0 8916375#1 254466686#0 254466686#1 254466686#2 254466686#3 254466686#4 254396719#0 254756526#0 254971069#0 27054195#0 8922640#0 254971056#0 91185877#0 91185877#1 30030101#0 30030101#1 87376669 48211487#0 48211487#1 48211487#2 48211828 254756518 148874363#0 148874364#0 148874364#1 148874364#3 30029708#0 30029708#1 30029708#2 30029866#0 30029866#2 30029866#3 87297168 204967525 -204967525"/>
        </routeDistribution>
        <stop parkingArea="parkingArea_8916922#3_0_423" duration="100.00" parking="1"/>
    </vehicle>

    <vehicle id="323" type="vecType" depart="20040.00" arrival="20914.00">
        <routeDistribution>
            <route replacedOnEdge="87297168" replacedOnIndex="27" reason="traci:setRoute" replacedAtTime="20433.00" probability="0" edges="254466686#4 254396719#0 254756526#0 254971069#0 27054195#0 8922640#0 254971056#0 91185877#0 91185877#1 30030101#0 30030101#1 87376669 48211487#0 48211487#1 48211487#2 48211828 254756518 148874363#0 148874364#0 148874364#1 148874364#3 30029708#0 30029708#1 30029708#2 30029866#0 30029866#2 30029866#3 87297168 204967525"/>
            <route replacedOnEdge="-87297168" replacedOnIndex="30" reason="traci:changeTarget" replacedAtTime="20472.00" probability="0" edges="254466686#4 254396719#0 254756526#0 254971069#0 27054195#0 8922640#0 254971056#0 91185877#0 91185877#1 30030101#0 30030101#1 87376669 48211487#0 48211487#1 48211487#2 48211828 254756518 148874363#0 148874364#0 148874364#1 148874364#3 30029708#0 30029708#1 30029708#2 30029866#0 30029866#2 30029866#3 87297168 204967525 -204967525 -87297168 -204968628 -27570798#4 255168048#4 27054184#0 27570786#2 -27570786#2"/>
            <route edges="254466686#4 254396719#0 254756526#0 254971069#0 27054195#0 8922640#0 254971056#0 91185877#0 91185877#1 30030101#0 30030101#1 87376669 48211487#0 48211487#1 48211487#2 48211828 254756518 148874363#0 148874364#0 148874364#1 148874364#3 30029708#0 30029708#1 30029708#2 30029866#0 30029866#2 30029866#3 87297168 204967525 -204967525 -87297168 30029867#0 30029867#1 30029867#2 -30029708#2 -30029708#1 -30029708#0 30030100#0 30030100#2 148846995 148846996#0 148846996#1 148846996#2 -48211487#2 -48211487#1 -48211487#0 48211960 87376672#0 87376672#1 -91185877#1 -91185877#0 -254971056#1 -8922640#1 27054205#0 27054205#1 27054209#0 -254756526#1 -254396719#1 -254466686#4 254466686#4"/>
        </routeDistribution>
        <stop parkingArea="parkingArea_-87297168_0_1209" duration="100.00" parking="1"/>
    </vehicle>

    <vehicle id="320" type="vecType" depart="20040.00" arrival="20961.00">
        <routeDistribution>
            <route replacedOnEdge="-p4#0" replacedOnIndex="23" reason="traci:changeTarget" replacedAtTime="20531.00" probability="0" edges="191296172#0 191296172#1 25657409#0 25657409#2 25657409#3 25657409#4 25657409#5 25657409#7 25657409#9 25657409#10 25657409#11 25657409#12 25657409#13 25657409#14 25657409#15 25657409#16 25657409#17 25657409#18 25657409#19 255168047#0 255168047#3 254299142#7 p4#0 -p4#0"/>
            <route edges="191296172#0 191296172#1 25657409#0 25657409#2 25657409#3 25657409#4 25657409#5 25657409#7 25657409#9 25657409#10 25657409#11 25657409#12 25657409#13 25657409#14 25657409#15 25657409#16 25657409#17 25657409#18 25657409#19 255168047#0 255168047#3 254299142#7 p4#0 -p4#0 254299142#9 91181771#6 283534317#2 283534317#5 283534317#6 283534317#8 8915151 31129732#1 26779355 8915704#0 8915704#1 254299121#6 254299121#8 254299121#9 25758513 27029200#0 -111089307#4 -111089307#3 -191296172#0 191296172#0"/>
        </routeDistribution>
        <stop parkingArea="parkingArea_-p4#0_0_102" duration="100.00" parking="1"/>
    </vehicle>

    <vehicle id="310" type="vecType" depart="19860.00" arrival="20962.00">
        <routeDistribution>
            <route replacedOnEdge="8916922#3" replacedOnIndex="30" reason="traci:changeTarget" replacedAtTime="20359.00" probability="0" edges="31129765 123741465 8915117 27432609 157812260#7 157812260#8 157812260#9 25657409#10 25657409#11 25657409#12 25657409#13 25657409#14 25657409#15 25657409#16 25657409#17 25657409#18 25657409#19 255168047#0 255168047#3 255168046#0 255168046#2 225518502#0 225518502#2 225518502#3 111049100#0 99231460 99231482 8918460#0 -254971064#1 -8916922#4 8916922#3"/>
            <route edges="31129765 123741465 8915117 27432609 157812260#7 157812260#8 157812260#9 25657409#10 25657409#11 25657409#12 25657409#13 25657409#14 25657409#15 25657409#16 25657409#17 25657409#18 25657409#19 255168047#0 255168047#3 255168046#0 255168046#2 225518502#0 225518502#2 225518502#3 111049100#0 99231460 99231482 8918460#0 -254971064#1 -8916922#4 8916922#3 254971064#0 99231475 225432462#0 47172745 91181771#0 91181771#3 91181771#4 91181771#5 91181771#6 283534317#2 283534317#5 283534317#6 283534317#8 8915151 31129732#1 31129732#2 254299122 154966358 gneE27 31129765"/>
        </routeDistribution>
        <stop parkingArea="parkingArea_8916922#3_0_423" duration="100.00" parking="1"/>
    </vehicle>

    <vehicle id="325" type="vecType" depart="20100.00" arrival="20965.00">
        <routeDistribution>
            <route replacedOnEdge="37177689#10" replacedOnIndex="22" reason="traci:setRoute" replacedAtTime="20444.00" probability="0" edges="31129765 123741465 8915117 8915115#0 8915115#1 254299118#0 8916215 247966218#4 247966218#5 247966218#6 247966218#7 247966218#8 141688972#0 141688972#1 162931811#0 162931811#1 143617587 26943653#0 255330047#0 -131700725 27388400#0 52433698 37177689#10 -215524529"/>
            <route replacedOnEdge="-37177689#11" replacedOnIndex="25" reason="traci:changeTarget" replacedAtTime="20491.00" probability="0" edges="31129765 123741465 8915117 8915115#0 8915115#1 254299118#0 8916215 247966218#4 247966218#5 247966218#6 247966218#7 247966218#8 141688972#0 141688972#1 162931811#0 162931811#1 143617587 26943653#0 255330047#0 -131700725 27388400#0 52433698 37177689#10 -215524529 215524529 -37177689#11 -37177689#9 -37177689#5 -37177689#0 52432938#1 255351748 -26943653#1 -143617589#6 143617589#3 -143617587 -133755923#1 -133755923#0 -28518571#1 23883761"/>
            <route edges="31129765 123741465 8915117 8915115#0 8915115#1 254299118#0 8916215 247966218#4 247966218#5 247966218#6 247966218#7 247966218#8 141688972#0 141688972#1 162931811#0 162931811#1 143617587 26943653#0 255330047#0 -131700725 27388400#0 52433698 37177689#10 -215524529 215524529 -37177689#11 -37177689#9 -27659928#1 -27659928#0 30454437 gneE21 22277701 -254308553 -254305050#1 -8920435 8920452#1 254305033#2 254305033#3 254305033#4 254305033#5 8915588 254299122 154966358 gneE27 31129765"/>
        </routeDistribution>
        <stop parkingArea="parkingArea_-37177689#11_0_829" duration="100.00" parking="1"/>
    </vehicle>

    <vehicle id="332" type="vecType" depart="20400.00" arrival="20982.00">
        <routeDistribution>
            <route replacedOnEdge="50690291#0" replacedOnIndex="8" reason="traci:setRoute" replacedAtTime="20495.00" probability="0" edges="-242896157#0 -202485361#1 -99231486 364480601#0 283537380#0 283537380#1 283537380#2 8915351 50690291#0 50690291#1"/>
            <route replacedOnEdge="-35675861#0" replacedOnIndex="15" reason="traci:changeTarget" replacedAtTime="20772.00" probability="0" edges="-242896157#0 -202485361#1 -99231486 364480601#0 283537380#0 283537380#1 283537380#2 8915351 50690291#0 50690291#1 gneE4 90077241 8921938 120813417 31129372 -35675861#0 -35675862 27397692"/>
            <route edges="-242896157#0 -202485361#1 -99231486 364480601#0 283537380#0 283537380#1 283537380#2 8915351 50690291#0 50690291#1 gneE4 90077241 8921938 120813417 31129372 -35675861#0 -35675862 27397692 27397691 -242896157#0"/>
        </routeDistribution>
        <stop parkingArea="parkingArea_-35675861#0_0_462" duration="100.00" parking="1"/>
    </vehicle>

    <vehicle id="305" type="vecType" depart="19800.00" arrival="21016.00">
        <routeDistribution>
            <route replacedOnEdge="254758126#3" replacedOnIndex="19" reason="traci:changeTarget" replacedAtTime="20346.00" probability="0" edges="31129765 123741465 8915117 27432609 157812260#7 157812260#8 157812260#9 157812260#10 157812260#11 88572922#0 35973460#1 263855294#0 8920975#0 8920975#1 8920975#2 277480425 254758126#0 254758126#1 254758126#2 254758126#3"/>
            <route edges="31129765 123741465 8915117 27432609 157812260#7 157812260#8 157812260#9 157812260#10 157812260#11 88572922#0 35973460#1 263855294#0 8920975#0 8920975#1 8920975#2 277480425 254758126#0 254758126#1 254758126#2 254758126#3 254758126#4 254758115#2 254758124#0 254758124#1 254758124#3 254758124#6 254758125#0 277480563#0 277480563#1 277480563#2 254759927#0 254759927#1 111547662#0 88572901#0 264874017#0 264874017#3 264874017#4 264874017#5 254305033#0 254305033#1 254305033#2 254305033#3 254305033#4 254305033#5 8915588 254299122 154966358 gneE27 31129765"/>
        </routeDistribution>
        <stop parkingArea="parkingArea_254758126#3_0_1135" duration="100.00" parking="1"/>
    </vehicle>

    <vehicle id="309" type="vecType" depart="19860.00" arrival="21029.00">
        <routeDistribution>
            <route replacedOnEdge="-204884378#1" replacedOnIndex="25" reason="traci:setRoute" replacedAtTime="20382.00" probability="0" edges="8915254 256787755#0 256787755#2 256787755#3 25657409#4 25657409#5 25657409#7 25657409#9 157812260#10 157812260#11 -88572941 -88572932#2 -88572932#1 -88572932#0 -51392400 -51392402#0 -51392402#1 -111560680 86334994#0 111552058#0 -228196396 -204884387#2 -224384019#1 -224384018 -225719777#1 -204884378#1 204884378#0"/>
            <route replacedOnEdge="-224384018" replacedOnIndex="29" reason="traci:changeTarget" replacedAtTime="20477.00" probability="0" edges="8915254 256787755#0 256787755#2 256787755#3 25657409#4 25657409#5 25657409#7 25657409#9 157812260#10 157812260#11 -88572941 -88572932#2 -88572932#1 -88572932#0 -51392400 -51392402#0 -51392402#1 -111560680 86334994#0 111552058#0 -228196396 -204884387#2 -224384019#1 -224384018 -225719777#1 -204884378#1 204884378#0 225719777#0 224200967 -224384018"/>