<?xml version="1.0" encoding="UTF-8"?>

<!-- generated on 2023-01-09 09:25:02 by Eclipse SUMO sumo Version 1.14.1
<configuration xmlns:xsi="http://www.w3.org/2001/XMLSchema-instance" xsi:noNamespaceSchemaLocation="http://sumo.dlr.de/xsd/sumoConfiguration.xsd">

    <input>
        <net-file value="./strategia3_config/../san_francisco.net.xml"/>
        <route-files value="./strategia3_config/../san_francisco.rou.xml"/>
        <additional-files value="./strategia3_config/../san_francisco.poly.xml,./strategia3_config/../parking_capacity_100%25/off_parking_100%25.add.xml,./strategia3_config/../parking_capacity_100%25/on_parking_100%25.add.xml"/>
    </input>

    <output>
        <emission-output value="./strategia3_config/../output/strategia3/100%25/emissions.xml"/>
        <tripinfo-output value="./strategia3_config/../output/strategia3/100%25/tripinfo.xml"/>
        <vehroute-output value="./strategia3_config/../output/strategia3/100%25/vehroute.xml"/>
        <stop-output value="./strategia3_config/../output/strategia3/100%25/stops.xml"/>
        <collision-output value="./strategia3_config/../output/strategia3/100%25/collision.xml"/>
        <statistic-output value="./strategia3_config/../output/strategia3/100%25/statistic.xml"/>
    </output>

    <time>
        <step-length value="1"/>
    </time>

    <processing>
        <ignore-route-errors value="false"/>
    </processing>

    <report>
        <verbose value="true"/>
        <xml-validation value="never"/>
    </report>

    <traci_server>
        <remote-port value="54157"/>
    </traci_server>

    <gui_only>
        <gui-settings-file value="./strategia3_config/../gui-settings.cfg"/>
        <start value="true"/>
    </gui_only>

</configuration>
-->

<routes xmlns:xsi="http://www.w3.org/2001/XMLSchema-instance" xsi:noNamespaceSchemaLocation="http://sumo.dlr.de/xsd/routes_file.xsd">
    <vehicle id="93" type="vecType" depart="18120.00" arrival="19563.00">
        <routeDistribution>
            <route replacedOnEdge="254758127#17" replacedOnIndex="23" reason="traci:setRoute" replacedAtTime="18329.00" probability="0" edges="-254758121#2 -254758121#0 -26938418#4 -26938418#3 -26938418#2 -26938418#1 26938293#2 72024282#0 72024282#1 -72981813#3 254758127#1 254758127#2 254758127#3 254758127#4 254758127#5 254758127#6 254758127#8 254758127#10 254758127#12 254758127#13 254758127#14 254758127#15 254758127#16 254758127#17 204967525"/>
            <route replacedOnEdge="-87297168" replacedOnIndex="26" reason="traci:changeTarget" replacedAtTime="18370.00" probability="0" edges="-254758121#2 -254758121#0 -26938418#4 -26938418#3 -26938418#2 -26938418#1 26938293#2 72024282#0 72024282#1 -72981813#3 254758127#1 254758127#2 254758127#3 254758127#4 254758127#5 254758127#6 254758127#8 254758127#10 254758127#12 254758127#13 254758127#14 254758127#15 254758127#16 254758127#17 204967525 -204967525 -87297168 -204968628 -27570798#4 255168048#4 27054184#0 27570786#2 -27570786#2"/>
            <route edges="-254758121#2 -254758121#0 -26938418#4 -26938418#3 -26938418#2 -26938418#1 26938293#2 72024282#0 72024282#1 -72981813#3 254758127#1 254758127#2 254758127#3 254758127#4 254758127#5 254758127#6 254758127#8 254758127#10 254758127#12 254758127#13 254758127#14 254758127#15 254758127#16 254758127#17 204967525 -204967525 -87297168 30029867#0 30029878#0 8916768#15 -254758127#16 -254758127#15 -254758127#14 -254758127#13 -254758127#12 -254758127#11 -254758127#9 -254758127#7 206662304#9 206662304#11 87297164#3 87297164#4 87297164#5 87297164#6 87297164#7 87297164#8 26938417 26938418#0 26938418#1 26938418#2 26938418#3 26938418#4 254758121#0 254758121#1 -254758121#2"/>
        </routeDistribution>
        <stop parkingArea="parkingArea_-87297168_0_1209" duration="977.00" parking="1"/>
    </vehicle>

    <vehicle id="136" type="vecType" depart="18360.00" arrival="20148.00">
        <routeDistribution>
            <route replacedOnEdge="254306572#0" replacedOnIndex="25" reason="traci:changeTarget" replacedAtTime="18824.00" probability="0" edges="31129765 123741465 8915117 27432609 157812260#7 157812260#8 157812260#9 157812260#10 157812260#11 -88572941 -88572932#2 -88572932#1 -88572932#0 -51392400 -51392402#0 -51392402#1 -111560680 86334994#0 111552058#0 88597544#0 88597544#2 224316520#0 224316520#1 254297759#0 224316514#0 254306572#0"/>
            <route edges="31129765 123741465 8915117 27432609 157812260#7 157812260#8 157812260#9 157812260#10 157812260#11 -88572941 -88572932#2 -88572932#1 -88572932#0 -51392400 -51392402#0 -51392402#1 -111560680 86334994#0 111552058#0 88597544#0 88597544#2 224316520#0 224316520#1 254297759#0 224316514#0 254306572#0 -8920734 133733593#0 287958607#4 133733590#0 8918656#0 88572948#0 91181771#4 91181771#5 91181771#6 283534317#2 283534317#5 283534317#6 283534317#8 8915151 31129732#1 31129732#2 254299122 154966358 gneE27 31129765"/>
        </routeDistribution>
        <stop parkingArea="parkingArea_254306572#0_0_372" duration="908.00" parking="1"/>
    </vehicle>

    <vehicle id="3" type="vecType" depart="18000.00" arrival="20309.00">
        <routeDistribution>
            <route replacedOnEdge="-27397692" replacedOnIndex="29" reason="traci:changeTarget" replacedAtTime="18493.00" probability="0" edges="-133781749 -133781759#2 -133781759#1 -133781759#0 -27167270#2 -27167270#1 -27167270#0 -263855294#3 -263855294#0 -35973460#1 -228215681 -225432464 -207761516 111547662#0 88572901#0 264874017#0 25657409#17 25657409#18 25657409#19 255168047#0 255168047#3 255168046#0 255168046#2 225518502#0 225518502#2 225518502#3 111049100#0 99231460 99231482 -27397692"/>
            <route edges="-133781749 -133781759#2 -133781759#1 -133781759#0 -27167270#2 -27167270#1 -27167270#0 -263855294#3 -263855294#0 -35973460#1 -228215681 -225432464 -207761516 111547662#0 88572901#0 264874017#0 25657409#17 25657409#18 25657409#19 255168047#0 255168047#3 255168046#0 255168046#2 225518502#0 225518502#2 225518502#3 111049100#0 99231460 99231482 -27397692 99231468#0 35675861#0 35675861#1 283537552#0 283537552#1 283537644#0 283537644#2 88559702#0 88559702#1 88559702#2 25758528#0 25758528#1 8915151 31129732#1 26779355 8915704#0 8915704#1 254299121#6 256787755#2 256787755#3 256787755#5 91181769#0 88572943#0 88572943#1 8920338 225847523 -225853134 -8922072#1 -8922072#0 133781749 -133781749"/>
        </routeDistribution>
        <stop parkingArea="parkingArea_-27397692_0_397" duration="1356.00" parking="1"/>
    </vehicle>

    <vehicle id="22" type="vecType" depart="18000.00" arrival="20555.00">
        <routeDistribution>
            <route replacedOnEdge="88463827#0" replacedOnIndex="29" reason="traci:setRoute" replacedAtTime="18358.00" probability="0" edges="27398045#1 27398045#2 27398045#3 27398045#4 27398045#5 27398045#6 27398045#7 27398045#8 27398045#9 91182069#1 91182069#7 91182069#8 91182069#9 91182060 27054209#0 254971055 27398048#0 27398048#4 27398048#2 254756517 -8919179#1 254756521#3 254756521#5 8922560#1 8922560#3 8922560#4 283512618#0 283512618#3 283512618#5 88463827#0 8916922#1"/>
            <route replacedOnEdge="8916922#3" replacedOnIndex="31" reason="traci:changeTarget" replacedAtTime="18460.00" probability="0" edges="27398045#1 27398045#2 27398045#3 27398045#4 27398045#5 27398045#6 27398045#7 27398045#8 27398045#9 91182069#1 91182069#7 91182069#8 91182069#9 91182060 27054209#0 254971055 27398048#0 27398048#4 27398048#2 254756517 -8919179#1 254756521#3 254756521#5 8922560#1 8922560#3 8922560#4 283512618#0 283512618#3 283512618#5 88463827#0 8916922#1 8916922#3 -8916922#4"/>
            <route edges="27398045#1 27398045#2 27398045#3 27398045#4 27398045#5 27398045#6 27398045#7 27398045#8 27398045#9 91182069#1 91182069#7 91182069#8 91182069#9 91182060 27054209#0 254971055 27398048#0 27398048#4 27398048#2 254756517 -8919179#1 254756521#3 254756521#5 8922560#1 8922560#3 8922560#4 283512618#0 283512618#3 283512618#5 88463827#0 8916922#1 8916922#3 254971064#0 99231463#0 224373751 28319343#0 8916375#0 8916375#1 254466686#0 254466686#1 254466686#2 254466686#3 254466686#4 254396709#0 287958606#0 287958606#3 91181759#0 91181759#2 100400946 91181760#0 91181760#1 27166421#1 254756525#19 254756525#20 254756525#23 254756525#25 254756525#26 gneE8 27398045#1"/>
        </routeDistribution>
        <stop parkingArea="parkingArea_8916922#3_0_423" duration="1546.00" parking="1"/>
    </vehicle>

    <vehicle id="187" type="vecType" depart="18660.00" arrival="20571.00">
        <routeDistribution>
            <route replacedOnEdge="27054205#0" replacedOnIndex="11" reason="traci:setRoute" replacedAtTime="18876.00" probability="0" edges="-24335483#9 -24335483#8 -24335483#6 -24335483#5 -24335483#3 24335485#1 -30035647#1 8919205#0 8919205#12 8919205#16 -8922640#1 27054205#0 27054205#1"/>
            <route replacedOnEdge="8916867#0" replacedOnIndex="13" reason="traci:changeTarget" replacedAtTime="18889.00" probability="0" edges="-24335483#9 -24335483#8 -24335483#6 -24335483#5 -24335483#3 24335485#1 -30035647#1 8919205#0 8919205#12 8919205#16 -8922640#1 27054205#0 27054205#1 8916867#0 254756525#3 224316521#4 91182062#0 8922229"/>
            <route edges="-24335483#9 -24335483#8 -24335483#6 -24335483#5 -24335483#3 24335485#1 -30035647#1 8919205#0 8919205#12 8919205#16 -8922640#1 27054205#0 27054205#1 8916867#0 254756525#3 224316521#4 91182062#0 91182062#1 91182062#2 91182062#3 91185877#0 224384020#6 224384020#8 -24335485#3 24335483#1 24335483#4 24335483#6 24335483#7 24335483#9 -24335483#9"/>
        </routeDistribution>
        <stop parkingArea="parkingArea_8916867#0_0_324" duration="1403.00" parking="1"/>
    </vehicle>

    <vehicle id="36" type="vecType" depart="18009.00" arrival="20592.00">
        <routeDistribution>
            <route replacedOnEdge="255330036#10" replacedOnIndex="11" reason="traci:setRoute" replacedAtTime="18375.00" probability="0" edges="123867455 8920391#0 255330048 255351721#0 -27656675 26943623 -111550911#3 -111550911#2 -111550911#1 -111550911#0 -88559680#5 255330036#10 255330036#11"/>
            <route replacedOnEdge="255330036#13" replacedOnIndex="14" reason="traci:changeTarget" replacedAtTime="18413.00" probability="0" edges="123867455 8920391#0 255330048 255351721#0 -27656675 26943623 -111550911#3 -111550911#2 -111550911#1 -111550911#0 -88559680#5 255330036#10 255330036#11 255330036#12 255330036#13"/>
            <route edges="123867455 8920391#0 255330048 255351721#0 -27656675 26943623 -111550911#3 -111550911#2 -111550911#1 -111550911#0 -88559680#5 255330036#10 255330036#11 255330036#12 255330036#13 255330057#0 8920394#0 8920394#1 27145438#0 255330047#0 30454437 gneE21 123867455"/>
        </routeDistribution>
        <stop parkingArea="parkingArea_255330036#13_0_94" duration="1882.00" parking="1"/>
    </vehicle>

    <vehicle id="85" type="vecType" depart="18126.00" arrival="20595.00">
        <routeDistribution>
            <route replacedOnEdge="242896157#1" replacedOnIndex="10" reason="traci:changeTarget" replacedAtTime="18390.00" probability="0" edges="90077241 8921938 110361656 111319423 27397919 179235241 -364480069 99231460 99231482 27397691 242896157#1"/>
            <route edges="90077241 8921938 110361656 111319423 27397919 179235241 -364480069 99231460 99231482 27397691 242896157#1 88463829#0 88466055#0 88466055#1 99231468#0 35675861#0 35675861#1 8915351 50690291#0 50690291#1 gneE4 90077241"/>
        </routeDistribution>
        <stop parkingArea="parkingArea_242896157#1_0_435" duration="1730.00" parking="1"/>
    </vehicle>

    <vehicle id="52" type="vecType" depart="18060.00" arrival="20654.00">
        <routeDistribution>
            <route replacedOnEdge="254299122" replacedOnIndex="32" reason="traci:setRoute" replacedAtTime="18537.00" probability="0" edges="30029172#0 30029172#2 30029172#5 288065247#2 288065247#3 288065247#4 288065247#6 27166406#1 27166444 254758124#0 254758124#1 254758124#3 254758124#6 254758125#0 277480563#0 277480563#1 277480563#2 254759927#0 254759927#1 111547662#0 88572901#0 264874017#0 264874017#3 264874017#4 264874017#5 254305033#0 254305033#1 254305033#2 254305033#3 254305033#4 254305033#5 8915588 254299122 154966358"/>
            <route replacedOnEdge="254299118#0" replacedOnIndex="40" reason="traci:changeTarget" replacedAtTime="18622.00" probability="0" edges="30029172#0 30029172#2 30029172#5 288065247#2 288065247#3 288065247#4 288065247#6 27166406#1 27166444 254758124#0 254758124#1 254758124#3 254758124#6 254758125#0 277480563#0 277480563#1 277480563#2 254759927#0 254759927#1 111547662#0 88572901#0 264874017#0 264874017#3 264874017#4 264874017#5 254305033#0 254305033#1 254305033#2 254305033#3 254305033#4 254305033#5 8915588 254299122 154966358 gneE27 31129765 123741465 8915117 8915115#0 8915115#1 254299118#0 8916215 -247966218#3 -247966218#2 27167281#0 -27167281#1"/>
            <route edges="30029172#0 30029172#2 30029172#5 288065247#2 288065247#3 288065247#4 288065247#6 27166406#1 27166444 254758124#0 254758124#1 254758124#3 254758124#6 254758125#0 277480563#0 277480563#1 277480563#2 254759927#0 254759927#1 111547662#0 88572901#0 264874017#0 264874017#3 264874017#4 264874017#5 254305033#0 254305033#1 254305033#2 254305033#3 254305033#4 254305033#5 8915588 254299122 154966358 gneE27 31129765 123741465 8915117 8915115#0 8915115#1 254299118#0 254299118#1 254299118#2 254299118#3 -254305050#1 -254305050#0 -264874017#5 -264874017#4 -264874017#3 25657409#17 25657409#18 -214545530#2 -88572895#2 -88572895#0 -85789166#3 85789165 30832507#0 30832507#1 -377646101#2 24588081 290052331 84654238#0 84654238#3 84654238#4 286003243#0 100400944 100400942#0 100400942#1 91182068 91182067 30029172#0"/>
        </routeDistribution>
        <stop parkingArea="parkingArea_254299118#0_0_1350" duration="1564.00" parking="1"/>
    </vehicle>

    <vehicle id="241" type="vecType" depart="19440.00" arrival="20720.00">
        <routeDistribution>
            <route replacedOnEdge="254756525#25" replacedOnIndex="4" reason="traci:setRoute" replacedAtTime="19544.00" probability="0" edges="288065247#6 -288065247#6 254756525#20 254756525#23 254756525#25 254756525#26"/>
            <route replacedOnEdge="27398045#2" replacedOnIndex="8" reason="traci:changeTarget" replacedAtTime="19581.00" probability="0" edges="288065247#6 -288065247#6 254756525#20 254756525#23 254756525#25 254756525#26 gneE8 27398045#1 27398045#2 27398045#3 254758121#1 254758121#3 144346316#3 -144346316#4"/>
            <route edges="288065247#6 -288065247#6 254756525#20 254756525#23 254756525#25 254756525#26 gneE8 27398045#1 27398045#2 27398045#3 27398045#4 27398045#5 288065247#4 288065247#6"/>
        </routeDistribution>
        <stop parkingArea="parkingArea_27398045#2_0_663" duration="1070.00" parking="1"/>
    </vehicle>

    <vehicle id="88" type="vecType" depart="18123.00" arrival="20727.00">
        <routeDistribution>
            <route replacedOnEdge="-8922307" replacedOnIndex="25" reason="traci:changeTarget" replacedAtTime="18566.00" probability="0" edges="31129765 123741465 8915117 27432609 157812260#7 157812260#8 157812260#9 25657409#10 25657409#11 25657409#12 25657409#13 25657409#14 25657409#15 25657409#16 25657409#17 25657409#18 25657409#19 255168047#0 255168047#3 255168046#0 255168046#2 225518502#0 225518502#2 225518502#3 111049100#0 -8922307"/>
            <route edges="31129765 123741465 8915117 27432609 157812260#7 157812260#8 157812260#9 25657409#10 25657409#11 25657409#12 25657409#13 25657409#14 25657409#15 25657409#16 25657409#17 25657409#18 25657409#19 255168047#0 255168047#3 255168046#0 255168046#2 225518502#0 225518502#2 225518502#3 111049100#0 -8922307 35675861#1 283537552#0 283537552#1 283537644#0 283537644#2 88559702#0 88559702#1 88559702#2 25758528#0 25758528#1 8915151 31129732#1 31129732#2 254299122 154966358 gneE27 31129765"/>
        </routeDistribution>
        <stop parkingArea="parkingArea_-8922307_0_63" duration="1827.00" parking="1"/>
    </vehicle>

    <vehicle id="193" type="vecType" depart="18663.00" arrival="20787.00">
        <routeDistribution>
            <route replacedOnEdge="-8922307" replacedOnIndex="7" reason="traci:changeTarget" replacedAtTime="18875.00" probability="0" edges="90077241 8921938 110361656 111319423 27397919 179235241 -364480069 -8922307"/>
            <route edges="90077241 8921938 110361656 111319423 27397919 179235241 -364480069 -8922307 35675861#1 8915351 50690291#0 50690291#1 gneE4 90077241"/>
        </routeDistribution>
        <stop parkingArea="parkingArea_-8922307_0_63" duration="1629.00" parking="1"/>
    </vehicle>

    <vehicle id="137" type="vecType" depart="18420.00" arrival="20819.00">
        <routeDistribution>
            <route replacedOnEdge="290080809#4" replacedOnIndex="28" reason="traci:changeTarget" replacedAtTime="18805.00" probability="0" edges="-204967525 -87297168 30029867#0 30029867#1 30029867#2 -30029708#2 -30029708#1 -30029708#0 30030100#0 30030100#2 148846995 30030472 -24335487#2 -24335487#1 -24335487#0 -24335486#2 -24335486#1 -30035647#1 -91182067 -91182068 -100400942#1 -100400942#0 -100400944 -286003243#1 -84654238#5 -84654238#3 86303763#14 -p7#1 290080809#4"/>
            <route edges="-204967525 -87297168 30029867#0 30029867#1 30029867#2 -30029708#2 -30029708#1 -30029708#0 30030100#0 30030100#2 148846995 30030472 -24335487#2 -24335487#1 -24335487#0 -24335486#2 -24335486#1 -30035647#1 -91182067 -91182068 -100400942#1 -100400942#0 -100400944 -286003243#1 -84654238#5 -84654238#3 86303763#14 -p7#1 290080809#4 84654238#0 84654238#3 84654238#4 286003243#0 100400944 100400942#0 100400942#1 91182068 91182067 30035647#0 24335486#0 24335486#2 24335487#0 24335487#1 24335487#2 -254756527 -148874366 148874363#0 148874364#0 148874364#1 148874364#3 30029708#0 30029708#1 30029708#2 30029866#0 30029866#2 30029866#3 87297168 204967525 -204967525"/>
        </routeDistribution>
        <stop parkingArea="parkingArea_290080809#4_0_626" duration="1691.00" parking="1"/>
    </vehicle>

    <vehicle id="107" type="vecType" depart="18180.00" arrival="20824.00">
        <routeDistribution>
            <route replacedOnEdge="111319423" replacedOnIndex="43" reason="traci:changeTarget" replacedAtTime="18965.00" probability="0" edges="-206662304#13 -206662304#12 -206662304#11 -206662304#10 -206662304#8 -206662304#6 -206662304#4 -206662304#1 -254756527 148846996#1 148846996#2 -48211487#2 -48211487#1 -48211487#0 48211960 87376672#0 87376672#1 -91185877#1 -91185877#0 -254971056#1 -8922640#1 27054205#0 27054205#1 27054209#0 -254756526#1 -254396719#1 -254466686#4 27054213#4 27054213#6 91181774#0 8919020#0 88572905 91181770#0 283537380#0 283537380#1 283537380#2 8915351 50690291#0 50690291#1 gneE4 90077241 8921938 110361656 111319423"/>
            <route edges="-206662304#13 -206662304#12 -206662304#11 -206662304#10 -206662304#8 -206662304#6 -206662304#4 -206662304#1 -254756527 148846996#1 148846996#2 -48211487#2 -48211487#1 -48211487#0 48211960 87376672#0 87376672#1 -91185877#1 -91185877#0 -254971056#1 -8922640#1 27054205#0 27054205#1 27054209#0 -254756526#1 -254396719#1 -254466686#4 27054213#4 27054213#6 91181774#0 8919020#0 88572905 91181770#0 283537380#0 283537380#1 283537380#2 8915351 50690291#0 50690291#1 gneE4 90077241 8921938 110361656 111319423 27397919 179235243#1 364480068#1 364480068#2 88572881#0 88572881#3 88597575#0 88597575#1 254466686#2 254466686#3 254466686#4 254396719#0 254756526#0 254971069#0 27054195#0 8922640#0 254971056#0 91185877#0 91185877#1 30030101#0 30030101#1 87376669 48211487#0 48211487#1 48211487#2 48211828 254756518 148874366 254756527 206662304#0 206662304#4 206662304#5 206662304#7 206662304#9 206662304#11 206662304#12 206662304#13 -206662304#13"/>
        </routeDistribution>
        <stop parkingArea="parkingArea_111319423_0_83" duration="1309.00" parking="1"/>
    </vehicle>

    <vehicle id="122" type="vecType" depart="18240.00" arrival="20848.00">
        <routeDistribution>
            <route replacedOnEdge="224373753" replacedOnIndex="32" reason="traci:changeTarget" replacedAtTime="18843.00" probability="0" edges="111089307#0 -24310636#1 -24310636#0 24335439#0 24335439#1 24335439#2 -27029263 -88572874#2 -88572874#1 -88572874#0 -88572887#1 -88572887#0 -88572914#2 -88572941 -88572932#2 -88572932#1 -88572932#0 -51392400 -51392402#0 -51392402#1 -111560680 86334994#0 111552058#0 -228196396 -204884387#2 -224384019#1 -224384018 -225719777#1 -204884378#1 -228186482#1 -202317711 -224373753 224373753"/>
            <route edges="111089307#0 -24310636#1 -24310636#0 24335439#0 24335439#1 24335439#2 -27029263 -88572874#2 -88572874#1 -88572874#0 -88572887#1 -88572887#0 -88572914#2 -88572941 -88572932#2 -88572932#1 -88572932#0 -51392400 -51392402#0 -51392402#1 -111560680 86334994#0 111552058#0 -228196396 -204884387#2 -224384019#1 -224384018 -225719777#1 -204884378#1 -228186482#1 -202317711 -224373753 224373753 88597563#0 256400251#0 88572970 88572877#0 88559669 88572948#0 91181771#4 91181771#5 91181771#6 91181771#15 91181771#16 91181771#18 91181771#19 91181771#20 91181771#22 91181771#23 91181771#24 91181771#26 91181768#0 91181768#1 91181768#2 91181768#3 133781720 24310636#0 24310636#1 -111089307#0 111089307#0"/>
        </routeDistribution>
        <stop parkingArea="parkingArea_224373753_0_53" duration="1479.00" parking="1"/>
    </vehicle>

    <vehicle id="91" type="vecType" depart="18123.00" arrival="20870.00">
        <routeDistribution>
            <route replacedOnEdge="225518502#3" replacedOnIndex="21" reason="traci:changeTarget" replacedAtTime="18503.00" probability="0" edges="144489137#0 144489137#1 144489137#2 144489137#3 144489137#7 254758131#0 254758131#2 254758132#0 254758132#2 290052332#1 290052332#4 -144489136 -204884397 -228196396 -204884387#2 -224384019#1 88597577#0 88559691#0 88559691#4 225518502#0 225518502#2 225518502#3"/>
            <route edges="144489137#0 144489137#1 144489137#2 144489137#3 144489137#7 254758131#0 254758131#2 254758132#0 254758132#2 290052332#1 290052332#4 -144489136 -204884397 -228196396 -204884387#2 -224384019#1 88597577#0 88559691#0 88559691#4 225518502#0 225518502#2 225518502#3 111049100#0 364480069 364480068#0 364480068#1 364480068#2 88572881#0 305585433 228186482#0 204884378#0 225719777#0 224200967 224384019#0 204884387#0 144489134#0 144489134#2 144489134#3 290080809#0 290080809#4 84734271#1 84734271#2 84734271#3 84734271#5 84734271#6 84734271#7 91181767 gneE12 144489137#0"/>
        </routeDistribution>
        <stop parkingArea="parkingArea_225518502#3_0_85" duration="1761.00" parking="1"/>
    </vehicle>

    <vehicle id="159" type="vecType" depart="18540.00" arrival="20909.00">
        <routeDistribution>
            <route replacedOnEdge="27570802#1" replacedOnIndex="20" reason="traci:changeTarget" replacedAtTime="18728.00" probability="0" edges="28805009#5 24335487#1 24335487#2 -254756527 -148874366 148874363#0 148874364#0 148874364#1 148874364#3 30029708#0 30029708#1 30029708#2 30029866#0 30029866#2 88396403 -27570798#4 -27570798#1 -8921255#1 -8921255#0 27570802#0 27570802#1"/>
            <route edges="28805009#5 24335487#1 24335487#2 -254756527 -148874366 148874363#0 148874364#0 148874364#1 148874364#3 30029708#0 30029708#1 30029708#2 30029866#0 30029866#2 88396403 -27570798#4 -27570798#1 -8921255#1 -8921255#0 27570802#0 27570802#1 -27570802#1 -27570802#0 8921255#0 8921255#1 27570798#0 -255168048#3 34128718#1 -254299113#2 143666209#2 143666209#3 143666209#4 143666209#6 91185870#0 91185870#1 -30029708#0 30030100#0 30030100#2 148846995 30030472 -24335487#2 -24335487#1 -28805009#5 28805009#5"/>
        </routeDistribution>
        <stop parkingArea="parkingArea_27570802#1_0_276" duration="1831.00" parking="1"/>
    </vehicle>

    <vehicle id="75" type="vecType" depart="18120.00" arrival="20941.00">
        <routeDistribution>
            <route replacedOnEdge="47108420#0" replacedOnIndex="32" reason="traci:setRoute" replacedAtTime="18526.00" probability="0" edges="-254297762#2 -254297762#0 -255168048#4 -255168048#3 34128718#1 -254299113#2 143666209#2 143666209#3 143666209#4 143666209#6 91185870#0 91185870#1 -30029708#0 30030100#0 30030100#2 148846995 148846996#0 148846996#1 148846996#2 -48211487#2 -48211487#1 -48211487#0 48211960 87376672#0 87376672#1 -91185877#1 -91185877#0 -254971056#1 8919205#17 8919205#18 8919205#21 8919205#24 47108420#0 -47108420#2"/>
            <route replacedOnEdge="28231602#0" replacedOnIndex="34" reason="traci:changeTarget" replacedAtTime="18545.00" probability="0" edges="-254297762#2 -254297762#0 -255168048#4 -255168048#3 34128718#1 -254299113#2 143666209#2 143666209#3 143666209#4 143666209#6 91185870#0 91185870#1 -30029708#0 30030100#0 30030100#2 148846995 148846996#0 148846996#1 148846996#2 -48211487#2 -48211487#1 -48211487#0 48211960 87376672#0 87376672#1 -91185877#1 -91185877#0 -254971056#1 8919205#17 8919205#18 8919205#21 8919205#24 47108420#0 -47108420#2 28231602#0 24245395#0 48211230#2 48211230#4 91181775#0 27398048#0 27398048#4 27398048#2"/>
            <route edges="-254297762#2 -254297762#0 -255168048#4 -255168048#3 34128718#1 -254299113#2 143666209#2 143666209#3 143666209#4 143666209#6 91185870#0 91185870#1 -30029708#0 30030100#0 30030100#2 148846995 148846996#0 148846996#1 148846996#2 -48211487#2 -48211487#1 -48211487#0 48211960 87376672#0 87376672#1 -91185877#1 -91185877#0 -254971056#1 8919205#17 8919205#18 8919205#21 8919205#24 47108420#0 -47108420#2 28231602#0 24245395#0 24245395#1 224384020#0 224384020#2 224384020#5 91185877#1 30030101#0 30030101#1 87376669 48211487#0 48211487#1 48211487#2 48211828 254756518 148874363#0 148874364#0 148874364#1 148874364#3 30029708#0 30029708#1 30029708#2 30029866#0 30029866#2 88396403 -27570798#4 255168048#4 254297762#0 254297762#1 -254297762#2"/>
        </routeDistribution>
        <stop parkingArea="parkingArea_28231602#0_0_18" duration="2046.00" parking="1"/>
    </vehicle>

    <vehicle id="49" type="vecType" depart="18063.00" arrival="21117.00">
        <routeDistribution>
            <route replacedOnEdge="31129732#0" replacedOnIndex="15" reason="traci:changeTarget" replacedAtTime="18514.00" probability="0" edges="31129765 123741465 123741454#0 123741454#1 123741454#2 123741454#3 123741452 202317709 50690291#0 50690291#1 gneE4 90077241 8921938 120813417 202485364 31129732#0"/>
            <route edges="31129765 123741465 123741454#0 123741454#1 123741454#2 123741454#3 123741452 202317709 50690291#0 50690291#1 gneE4 90077241 8921938 120813417 202485364 31129732#0 31129732#1 31129732#2 254299122 154966358 gneE27 31129765"/>
        </routeDistribution>
        <stop parkingArea="parkingArea_31129732#0_0_532" duration="2471.00" parking="1"/>
    </vehicle>

    <vehicle id="198" type="vecType" depart="18720.00" arrival="21120.00">
        <routeDistribution>
            <route replacedOnEdge="224316522#0" replacedOnIndex="19" reason="traci:changeTarget" replacedAtTime="19146.00" probability="0" edges="142972028#1 89624695#0 8916932 88572943#1 -225847525 -365816004 -225847526 -228215681 -225432464 -207761516 -204884121 -225806041 -225806042#1 -365816000 -228201785#1 -228201785#0 -204884397 88597544#0 88597544#2 224316522#0"/>
            <route edges="142972028#1 89624695#0 8916932 88572943#1 -225847525 -365816004 -225847526 -228215681 -225432464 -207761516 -204884121 -225806041 -225806042#1 -365816000 -228201785#1 -228201785#0 -204884397 88597544#0 88597544#2 224316522#0 133733590#0 204884387#0 228196396 204884397 228201785#0 228201785#1 225806043 225806042#0 225806041 204884121 207761516 225432464 228215681 225847526 204963435 8917813 225847519#0 225847519#1 225847519#4 gneE14 142972028#1"/>
        </routeDistribution>
        <stop parkingArea="parkingArea_224316522#0_0_572" duration="1563.00" parking="1"/>
    </vehicle>

    <vehicle id="172" type="vecType" depart="18540.00" arrival="21202.00">
        <routeDistribution>
            <route replacedOnEdge="225847519#4" replacedOnIndex="30" reason="traci:changeTarget" replacedAtTime="19013.00" probability="0" edges="-35977367#1 -254758127#2 -254758127#1 -254758127#0 288065246#0 288065246#2 -25372932#5 -25372932#4 -25372932#3 -25372932#2 -25372932#0 144346316#0 26988009#0 26988009#4 254758122#0 254758122#1 254758122#3 254758122#4 254758122#6 254758122#7 225847522#0 225847522#1 225847522#2 254759933#0 254759933#2 254759933#4 204963435 8917813 225847519#0 225847519#1 225847519#4"/>
            <route edges="-35977367#1 -254758127#2 -254758127#1 -254758127#0 288065246#0 288065246#2 -25372932#5 -25372932#4 -25372932#3 -25372932#2 -25372932#0 144346316#0 26988009#0 26988009#4 254758122#0 254758122#1 254758122#3 254758122#4 254758122#6 254758122#7 225847522#0 225847522#1 225847522#2 254759933#0 254759933#2 254759933#4 204963435 8917813 225847519#0 225847519#1 225847519#4 gneE14 142972028#1 89624695#0 8916932 88572943#1 8920338 225847523 26988030#0 26988030#1 26988030#2 26988030#3 26988030#4 27167302#0 254759936 254448248 254448249#0 254448249#2 254448249#4 91181766#0 91181766#1 254759937#0 254759938#0 254759938#2 254759938#3 -144346316#4 -254758121#3 -254758121#2 -254758121#0 -26938418#4 -26938418#3 -26938418#2 -26938418#1 -26938418#0 -26938417 -87297164#8 -87297164#7 -35977367#1"/>
        </routeDistribution>
        <stop parkingArea="parkingArea_225847519#4_0_686" duration="1741.00" parking="1"/>
    </vehicle>

    <vehicle id="269" type="vecType" depart="19500.00" arrival="21265.00">
        <routeDistribution>
            <route replacedOnEdge="88466052#0" replacedOnIndex="7" reason="traci:setRoute" replacedAtTime="19760.00" probability="0" edges="-133755930#1 -133755930#0 27041554#0 27041554#1 8922234#0 8922234#2 255330056#0 88466052#0 -88463830"/>
            <route replacedOnEdge="88466052#1" replacedOnIndex="10" reason="traci:changeTarget" replacedAtTime="19862.00" probability="0" edges="-133755930#1 -133755930#0 27041554#0 27041554#1 8922234#0 8922234#2 255330056#0 88466052#0 -88463830 88463830 88466052#1 8916922#0 8916922#1 8916922#3 -8916922#4"/>