<?xml version="1.0" encoding="UTF-8"?>

<!-- generated on 2022-12-20 12:02:35 by Eclipse SUMO sumo Version 1.14.1
<configuration xmlns:xsi="http://www.w3.org/2001/XMLSchema-instance" xsi:noNamespaceSchemaLocation="http://sumo.dlr.de/xsd/sumoConfiguration.xsd">

    <input>
        <net-file value="./strategia3_config/../san_francisco.net.xml"/>
        <route-files value="./strategia3_config/../san_francisco.rou.xml"/>
        <additional-files value="./strategia3_config/../san_francisco.poly.xml,./strategia3_config/../parking_capacity_100%25/off_parking_100%25.add.xml,./strategia3_config/../parking_capacity_100%25/on_parking_100%25.add.xml"/>
    </input>

    <output>
        <emission-output value="./strategia3_config/../output/strategia3/100%25/emissions.xml"/>
        <tripinfo-output value="./strategia3_config/../output/strategia3/100%25/tripinfo.xml"/>
        <vehroute-output value="./strategia3_config/../output/strategia3/100%25/vehroute.xml"/>
        <stop-output value="./strategia3_config/../output/strategia3/100%25/stops.xml"/>
        <collision-output value="./strategia3_config/../output/strategia3/100%25/collision.xml"/>
        <statistic-output value="./strategia3_config/../output/strategia3/100%25/statistic.xml"/>
    </output>

    <time>
        <step-length value="1"/>
    </time>

    <processing>
        <ignore-route-errors value="false"/>
        <time-to-teleport value="-1"/>
    </processing>

    <report>
        <verbose value="true"/>
        <xml-validation value="never"/>
    </report>

    <traci_server>
        <remote-port value="49553"/>
    </traci_server>

    <gui_only>
        <gui-settings-file value="./strategia3_config/../gui-settings.cfg"/>
        <start value="true"/>
    </gui_only>

</configuration>
-->

<routes xmlns:xsi="http://www.w3.org/2001/XMLSchema-instance" xsi:noNamespaceSchemaLocation="http://sumo.dlr.de/xsd/routes_file.xsd">
    <vehicle id="4" type="vecType" depart="18000.00" arrival="19296.00">
        <routeDistribution>
            <route replacedOnEdge="-8916922#2" replacedOnIndex="27" reason="traci:setRoute" replacedAtTime="18566.00" probability="0" edges="142972028#1 89624695#0 8916932 88572943#1 -225847525 -365816004 8921141#0 -88572914#2 -88572941 -88572932#2 -88572932#1 -88572932#0 -51392400 -51392402#0 -51392402#1 -111560680 86334994#0 -88572965#1 -88572965#0 -88559669 -88572877#6 -88572970 -256400251#1 256400244#0 -99231475 -254971064#1 -8916922#4 -8916922#2 8916922#1"/>
            <route replacedOnEdge="8916922#3" replacedOnIndex="29" reason="traci:setRoute" replacedAtTime="18641.00" probability="0" edges="142972028#1 89624695#0 8916932 88572943#1 -225847525 -365816004 8921141#0 -88572914#2 -88572941 -88572932#2 -88572932#1 -88572932#0 -51392400 -51392402#0 -51392402#1 -111560680 86334994#0 -88572965#1 -88572965#0 -88559669 -88572877#6 -88572970 -256400251#1 256400244#0 -99231475 -254971064#1 -8916922#4 -8916922#2 8916922#1 8916922#3 -8916922#4"/>
            <route replacedOnEdge="27571801" replacedOnIndex="36" reason="traci:setRoute" replacedAtTime="18741.00" probability="0" edges="142972028#1 89624695#0 8916932 88572943#1 -225847525 -365816004 8921141#0 -88572914#2 -88572941 -88572932#2 -88572932#1 -88572932#0 -51392400 -51392402#0 -51392402#1 -111560680 86334994#0 -88572965#1 -88572965#0 -88559669 -88572877#6 -88572970 -256400251#1 256400244#0 -99231475 -254971064#1 -8916922#4 -8916922#2 8916922#1 8916922#3 -8916922#4 -8916922#2 -8916922#0 8922263#1 -8921065 88463831#0 27571801 -27571801"/>
            <route replacedOnEdge="24335490#0" replacedOnIndex="40" reason="traci:changeTarget" replacedAtTime="18824.00" probability="0" edges="142972028#1 89624695#0 8916932 88572943#1 -225847525 -365816004 8921141#0 -88572914#2 -88572941 -88572932#2 -88572932#1 -88572932#0 -51392400 -51392402#0 -51392402#1 -111560680 86334994#0 -88572965#1 -88572965#0 -88559669 -88572877#6 -88572970 -256400251#1 256400244#0 -99231475 -254971064#1 -8916922#4 -8916922#2 8916922#1 8916922#3 -8916922#4 -8916922#2 -8916922#0 8922263#1 -8921065 88463831#0 27571801 -27571801 27397934#0 -8916922#2 24335490#0 88463829#0"/>
            <route edges="142972028#1 89624695#0 8916932 88572943#1 -225847525 -365816004 8921141#0 -88572914#2 -88572941 -88572932#2 -88572932#1 -88572932#0 -51392400 -51392402#0 -51392402#1 -111560680 86334994#0 -88572965#1 -88572965#0 -88559669 -88572877#6 -88572970 -256400251#1 256400244#0 -99231475 -254971064#1 -8916922#4 -8916922#2 8916922#1 8916922#3 -8916922#4 -8916922#2 -8916922#0 8922263#1 -8921065 88463831#0 27571801 -27571801 27397934#0 -8916922#2 24335490#0 88463829#0 88466055#0 88466055#1 99231468#0 35675861#0 35675861#1 283537552#0 283537552#1 283537644#0 283537644#2 88559702#0 88559702#1 88559702#2 25758528#0 25758528#1 8915151 31129732#1 26779355 8915704#0 8915704#1 254299121#6 256787755#2 256787755#3 256787755#5 91181769#0 88572943#0 88572943#1 26988051 225847519#1 225847519#4 gneE14 142972028#1"/>
        </routeDistribution>
        <stop parkingArea="parkingArea_24335490#0_0_439" duration="3.00" parking="1"/>
    </vehicle>

    <vehicle id="26" type="vecType" depart="18000.00" arrival="19353.00">
        <routeDistribution>
            <route replacedOnEdge="88597553#1" replacedOnIndex="30" reason="traci:setRoute" replacedAtTime="18621.00" probability="0" edges="-24310636#2 -24310636#1 -24310636#0 24335439#0 24335439#1 24335439#2 -27029263 -88572874#2 -88572874#1 -88572874#0 -88572887#1 -88572887#0 -88572914#2 -88572941 -88572932#2 -88572932#1 -88572932#0 -51392400 -51392402#0 -51392402#1 -111560680 86334994#0 -88572965#1 -88572965#0 -88559669 -88572877#6 -88572970 88572881#0 88572881#3 88597575#0 88597553#1 27054213#6"/>
            <route replacedOnEdge="202317711" replacedOnIndex="35" reason="traci:setRoute" replacedAtTime="18745.00" probability="0" edges="-24310636#2 -24310636#1 -24310636#0 24335439#0 24335439#1 24335439#2 -27029263 -88572874#2 -88572874#1 -88572874#0 -88572887#1 -88572887#0 -88572914#2 -88572941 -88572932#2 -88572932#1 -88572932#0 -51392400 -51392402#0 -51392402#1 -111560680 86334994#0 -88572965#1 -88572965#0 -88559669 -88572877#6 -88572970 88572881#0 88572881#3 88597575#0 88597553#1 27054213#6 91181774#0 -228186482#1 -202317711 202317711 228186482#0"/>
            <route replacedOnEdge="228186482#0" replacedOnIndex="36" reason="traci:setRoute" replacedAtTime="18756.00" probability="0" edges="-24310636#2 -24310636#1 -24310636#0 24335439#0 24335439#1 24335439#2 -27029263 -88572874#2 -88572874#1 -88572874#0 -88572887#1 -88572887#0 -88572914#2 -88572941 -88572932#2 -88572932#1 -88572932#0 -51392400 -51392402#0 -51392402#1 -111560680 86334994#0 -88572965#1 -88572965#0 -88559669 -88572877#6 -88572970 88572881#0 88572881#3 88597575#0 88597553#1 27054213#6 91181774#0 -228186482#1 -202317711 202317711 228186482#0 -228186482#1"/>
            <route replacedOnEdge="88597563#0" replacedOnIndex="39" reason="traci:changeTarget" replacedAtTime="18836.00" probability="0" edges="-24310636#2 -24310636#1 -24310636#0 24335439#0 24335439#1 24335439#2 -27029263 -88572874#2 -88572874#1 -88572874#0 -88572887#1 -88572887#0 -88572914#2 -88572941 -88572932#2 -88572932#1 -88572932#0 -51392400 -51392402#0 -51392402#1 -111560680 86334994#0 -88572965#1 -88572965#0 -88559669 -88572877#6 -88572970 88572881#0 88572881#3 88597575#0 88597553#1 27054213#6 91181774#0 -228186482#1 -202317711 202317711 228186482#0 -228186482#1 -202317711 88597563#0"/>
            <route edges="-24310636#2 -24310636#1 -24310636#0 24335439#0 24335439#1 24335439#2 -27029263 -88572874#2 -88572874#1 -88572874#0 -88572887#1 -88572887#0 -88572914#2 -88572941 -88572932#2 -88572932#1 -88572932#0 -51392400 -51392402#0 -51392402#1 -111560680 86334994#0 -88572965#1 -88572965#0 -88559669 -88572877#6 -88572970 88572881#0 88572881#3 88597575#0 88597553#1 27054213#6 91181774#0 -228186482#1 -202317711 202317711 228186482#0 -228186482#1 -202317711 88597563#0 256400251#0 88572970 88572877#0 88559669 88572948#0 91181771#4 91181771#5 91181771#6 91181771#15 91181771#16 91181771#18 91181771#19 91181771#20 91181771#22 91181771#23 91181771#24 91181771#26 91181768#0 91181768#1 91181768#2 91181768#3 133781720 24310636#0 24310636#1 24310636#2 -24310636#2"/>
        </routeDistribution>
        <stop parkingArea="parkingArea_88597563#0_0_59" duration="3.00" parking="1"/>
    </vehicle>

</routes>
