<?xml version="1.0" encoding="UTF-8"?>

<!-- generated on 2022-12-09 14:32:27 by Eclipse SUMO sumo Version 1.14.1
<configuration xmlns:xsi="http://www.w3.org/2001/XMLSchema-instance" xsi:noNamespaceSchemaLocation="http://sumo.dlr.de/xsd/sumoConfiguration.xsd">

    <input>
        <net-file value="san_francisco.net.xml"/>
        <route-files value="san_francisco.rou.xml"/>
        <additional-files value="san_francisco.poly.xml,parking_capacity_50%25/off_parking_50%25.add.xml,parking_capacity_50%25/on_parking_50%25.add.xml"/>
    </input>

    <output>
        <emission-output value="output/dynamic_area/50%25/emission.xml"/>
        <summary-output value="output/dynamic_area/50%25/summary.xml"/>
        <tripinfo-output value="output/dynamic_area/50%25/tripinfo.xml"/>
        <vehroute-output value="output/dynamic_area/50%25/vehroute.xml"/>
        <stop-output value="output/dynamic_area/50%25/stops.xml"/>
        <collision-output value="output/dynamic_area/50%25/collision.xml"/>
        <statistic-output value="output/dynamic_area/50%25/statistic.xml"/>
    </output>

    <time>
        <step-length value="1"/>
    </time>

    <processing>
        <ignore-route-errors value="false"/>
        <time-to-teleport value="-1"/>
    </processing>

    <report>
        <verbose value="true"/>
        <xml-validation value="never"/>
    </report>

    <traci_server>
        <remote-port value="65288"/>
    </traci_server>

    <gui_only>
        <gui-settings-file value="gui-settings.cfg"/>
        <start value="true"/>
    </gui_only>

</configuration>
-->

<tripinfos xmlns:xsi="http://www.w3.org/2001/XMLSchema-instance" xsi:noNamespaceSchemaLocation="http://sumo.dlr.de/xsd/tripinfo_file.xsd">
    <tripinfo id="30" depart="18000.00" departLane="-91181760#0_0" departPos="5.10" departSpeed="0.00" departDelay="0.00" arrival="18341.00" arrivalLane="-91181760#0_0" arrivalPos="79.70" arrivalSpeed="12.91" duration="341.00" routeLength="3660.42" waitingTime="0.00" waitingCount="0" stopTime="20.00" timeLoss="42.77" rerouteNo="1" devices="vehroute_30 tripinfo_30 emissions_30" vType="vecType" speedFactor="1.18" vaporized="">
        <emissions CO_abs="12083.849500" CO2_abs="953391.895827" HC_abs="76.465664" PMx_abs="15.224572" NOx_abs="376.101292" fuel_abs="304088.559451" electricity_abs="0"/>
    </tripinfo>
    <tripinfo id="1" depart="18000.00" departLane="31129765_0" departPos="5.10" departSpeed="0.00" departDelay="0.00" arrival="18356.00" arrivalLane="31129765_0" arrivalPos="639.51" arrivalSpeed="20.02" duration="356.00" routeLength="4341.32" waitingTime="21.00" waitingCount="2" stopTime="20.00" timeLoss="67.33" rerouteNo="1" devices="vehroute_1 tripinfo_1 emissions_1" vType="vecType" speedFactor="0.94" vaporized="">
        <emissions CO_abs="18571.971632" CO2_abs="1159557.716726" HC_abs="110.947807" PMx_abs="21.048728" NOx_abs="457.669915" fuel_abs="369846.659995" electricity_abs="0"/>
    </tripinfo>
    <tripinfo id="45" depart="18060.00" departLane="31129765_0" departPos="5.10" departSpeed="0.00" departDelay="0.00" arrival="18384.00" arrivalLane="31129765_0" arrivalPos="639.51" arrivalSpeed="24.03" duration="324.00" routeLength="4234.28" waitingTime="40.00" waitingCount="1" stopTime="20.00" timeLoss="81.02" rerouteNo="1" devices="vehroute_45 tripinfo_45 emissions_45" vType="vecType" speedFactor="1.09" vaporized="">
        <emissions CO_abs="23235.428964" CO2_abs="1280794.931391" HC_abs="136.096080" PMx_abs="25.853676" NOx_abs="519.375292" fuel_abs="408515.094079" electricity_abs="0"/>
    </tripinfo>
    <tripinfo id="60" depart="18060.00" departLane="8916792_0" departPos="5.10" departSpeed="0.00" departDelay="0.00" arrival="18488.00" arrivalLane="8916792_0" arrivalPos="615.11" arrivalSpeed="11.65" duration="428.00" routeLength="3743.73" waitingTime="53.00" waitingCount="3" stopTime="20.00" timeLoss="98.05" rerouteNo="1" devices="vehroute_60 tripinfo_60 emissions_60" vType="vecType" speedFactor="1.08" vaporized="">
        <emissions CO_abs="19517.029479" CO2_abs="970531.362928" HC_abs="110.839453" PMx_abs="15.157939" NOx_abs="381.613454" fuel_abs="309560.267401" electricity_abs="0"/>
    </tripinfo>
    <tripinfo id="74" depart="18120.00" departLane="144489137#0_0" departPos="5.10" departSpeed="0.00" departDelay="0.00" arrival="18540.00" arrivalLane="144489137#0_0" arrivalPos="135.49" arrivalSpeed="9.81" duration="420.00" routeLength="2495.69" waitingTime="123.00" waitingCount="5" stopTime="20.00" timeLoss="169.29" rerouteNo="4" devices="vehroute_74 tripinfo_74 emissions_74" vType="vecType" speedFactor="0.96" vaporized="">
        <emissions CO_abs="32009.087280" CO2_abs="1009971.066403" HC_abs="169.073356" PMx_abs="18.571268" NOx_abs="419.315410" fuel_abs="322143.884187" electricity_abs="0"/>
    </tripinfo>
    <tripinfo id="76" depart="18120.00" departLane="225806031#0_0" departPos="5.10" departSpeed="0.00" departDelay="0.00" arrival="18576.00" arrivalLane="225806031#0_0" arrivalPos="142.16" arrivalSpeed="10.72" duration="456.00" routeLength="3181.76" waitingTime="111.00" waitingCount="5" stopTime="20.00" timeLoss="161.34" rerouteNo="1" devices="vehroute_76 tripinfo_76 emissions_76" vType="vecType" speedFactor="1.03" vaporized="">
        <emissions CO_abs="31210.978816" CO2_abs="1130260.488959" HC_abs="168.245088" PMx_abs="20.359198" NOx_abs="465.142005" fuel_abs="360509.484341" electricity_abs="0"/>
    </tripinfo>
    <tripinfo id="28" depart="18009.00" departLane="90077241_0" departPos="5.10" departSpeed="0.00" departDelay="9.00" arrival="18596.00" arrivalLane="90077241_0" arrivalPos="3225.35" arrivalSpeed="31.97" duration="587.00" routeLength="11976.91" waitingTime="71.00" waitingCount="4" stopTime="20.00" timeLoss="132.83" rerouteNo="2" devices="vehroute_28 tripinfo_28 emissions_28" vType="vecType" speedFactor="1.13" vaporized="">
        <emissions CO_abs="62415.509063" CO2_abs="3176371.686722" HC_abs="363.829711" PMx_abs="72.925490" NOx_abs="1242.814400" fuel_abs="1013118.836535" electricity_abs="0"/>
    </tripinfo>
    <tripinfo id="35" depart="18000.00" departLane="191296172#0_0" departPos="5.10" departSpeed="0.00" departDelay="0.00" arrival="18611.00" arrivalLane="-47108420#4_0" arrivalPos="5.44" arrivalSpeed="10.61" duration="611.00" routeLength="4097.72" waitingTime="188.00" waitingCount="7" stopTime="0.00" timeLoss="251.18" rerouteNo="1" devices="vehroute_35 tripinfo_35 emissions_35" vType="vecType" speedFactor="1.02" vaporized="">
        <emissions CO_abs="45768.475433" CO2_abs="1504558.144267" HC_abs="243.054784" PMx_abs="26.969051" NOx_abs="617.750948" fuel_abs="479898.893742" electricity_abs="0"/>
    </tripinfo>
    <tripinfo id="49" depart="18063.00" departLane="31129765_0" departPos="5.10" departSpeed="0.00" departDelay="3.00" arrival="18662.00" arrivalLane="31129765_0" arrivalPos="639.51" arrivalSpeed="18.12" duration="599.00" routeLength="12944.78" waitingTime="0.00" waitingCount="0" stopTime="20.00" timeLoss="32.97" rerouteNo="1" devices="vehroute_49 tripinfo_49 emissions_49" vType="vecType" speedFactor="0.85" vaporized="">
        <emissions CO_abs="23704.457432" CO2_abs="2481605.948833" HC_abs="164.079601" PMx_abs="45.577347" NOx_abs="906.886144" fuel_abs="791514.801154" electricity_abs="0"/>
    </tripinfo>
    <tripinfo id="93" depart="18120.00" departLane="-254758121#2_0" departPos="5.10" departSpeed="0.00" departDelay="0.00" arrival="18663.00" arrivalLane="-254758121#2_0" arrivalPos="99.35" arrivalSpeed="9.89" duration="543.00" routeLength="3841.81" waitingTime="90.00" waitingCount="3" stopTime="20.00" timeLoss="150.03" rerouteNo="3" devices="vehroute_93 tripinfo_93 emissions_93" vType="vecType" speedFactor="0.92" vaporized="">
        <emissions CO_abs="31408.639959" CO2_abs="1229810.646130" HC_abs="171.341938" PMx_abs="20.854403" NOx_abs="500.262317" fuel_abs="392261.785931" electricity_abs="0"/>
    </tripinfo>
    <tripinfo id="39" depart="18006.00" departLane="31129765_0" departPos="5.10" departSpeed="0.00" departDelay="6.00" arrival="18669.00" arrivalLane="31129765_0" arrivalPos="639.51" arrivalSpeed="19.30" duration="663.00" routeLength="5967.79" waitingTime="188.00" waitingCount="7" stopTime="20.00" timeLoss="255.03" rerouteNo="5" devices="vehroute_39 tripinfo_39 emissions_39" vType="vecType" speedFactor="0.90" vaporized="">
        <emissions CO_abs="52063.658222" CO2_abs="1965346.894188" HC_abs="282.367430" PMx_abs="38.088496" NOx_abs="800.316658" fuel_abs="626867.007054" electricity_abs="0"/>
    </tripinfo>
    <tripinfo id="16" depart="18006.00" departLane="90077241_0" departPos="5.10" departSpeed="0.00" departDelay="6.00" arrival="18688.00" arrivalLane="90077241_0" arrivalPos="3225.35" arrivalSpeed="24.31" duration="682.00" routeLength="11625.26" waitingTime="81.00" waitingCount="3" stopTime="20.00" timeLoss="137.58" rerouteNo="1" devices="vehroute_16 tripinfo_16 emissions_16" vType="vecType" speedFactor="0.88" vaporized="">
        <emissions CO_abs="41652.802983" CO2_abs="2634112.107294" HC_abs="250.097607" PMx_abs="50.815909" NOx_abs="1000.508224" fuel_abs="840163.583204" electricity_abs="0"/>
    </tripinfo>
    <tripinfo id="47" depart="18060.00" departLane="90077241_0" departPos="5.10" departSpeed="0.00" departDelay="0.00" arrival="18688.00" arrivalLane="90077241_1" arrivalPos="3225.35" arrivalSpeed="25.86" duration="628.00" routeLength="11784.85" waitingTime="6.00" waitingCount="1" stopTime="20.00" timeLoss="51.49" rerouteNo="5" devices="vehroute_47 tripinfo_47 emissions_47" vType="vecType" speedFactor="0.90" vaporized="">
        <emissions CO_abs="29433.888264" CO2_abs="2445729.432187" HC_abs="190.931753" PMx_abs="45.829500" NOx_abs="911.116643" fuel_abs="780074.623784" electricity_abs="0"/>
    </tripinfo>
    <tripinfo id="36" depart="18009.00" departLane="123867455_0" departPos="5.10" departSpeed="0.00" departDelay="9.00" arrival="18702.00" arrivalLane="123867455_0" arrivalPos="904.85" arrivalSpeed="28.01" duration="693.00" routeLength="5347.03" waitingTime="258.00" waitingCount="7" stopTime="20.00" timeLoss="340.75" rerouteNo="2" devices="vehroute_36 tripinfo_36 emissions_36" vType="vecType" speedFactor="0.97" vaporized="">
        <emissions CO_abs="66377.905308" CO2_abs="2145939.143958" HC_abs="353.023515" PMx_abs="44.439938" NOx_abs="894.086203" fuel_abs="684471.716802" electricity_abs="0"/>
    </tripinfo>
    <tripinfo id="21" depart="18000.00" departLane="27167762_0" departPos="5.10" departSpeed="0.00" departDelay="0.00" arrival="18711.00" arrivalLane="27167762_0" arrivalPos="139.02" arrivalSpeed="21.98" duration="711.00" routeLength="12026.47" waitingTime="115.00" waitingCount="6" stopTime="0.00" timeLoss="176.94" rerouteNo="4" devices="vehroute_21 tripinfo_21 emissions_21" vType="vecType" speedFactor="1.01" vaporized="">
        <emissions CO_abs="56848.762336" CO2_abs="3001616.545746" HC_abs="331.733253" PMx_abs="62.231851" NOx_abs="1158.383799" fuel_abs="957383.895382" electricity_abs="0"/>
    </tripinfo>
    <tripinfo id="31" depart="18006.00" departLane="123867455_0" departPos="5.10" departSpeed="0.00" departDelay="6.00" arrival="18723.00" arrivalLane="123867455_0" arrivalPos="904.85" arrivalSpeed="32.64" duration="717.00" routeLength="7632.90" waitingTime="132.00" waitingCount="7" stopTime="20.00" timeLoss="232.79" rerouteNo="1" devices="vehroute_31 tripinfo_31 emissions_31" vType="vecType" speedFactor="1.15" vaporized="">
        <emissions CO_abs="50216.951087" CO2_abs="2326535.596250" HC_abs="282.555836" PMx_abs="44.594026" NOx_abs="939.743163" fuel_abs="742065.553402" electricity_abs="0"/>
    </tripinfo>
    <tripinfo id="15" depart="18000.00" departLane="-24310636#2_0" departPos="5.10" departSpeed="0.00" departDelay="0.00" arrival="18755.00" arrivalLane="-24310636#2_1" arrivalPos="108.36" arrivalSpeed="10.32" duration="755.00" routeLength="6010.81" waitingTime="131.00" waitingCount="7" stopTime="20.00" timeLoss="214.45" rerouteNo="1" devices="vehroute_15 tripinfo_15 emissions_15" vType="vecType" speedFactor="0.93" vaporized="">
        <emissions CO_abs="45812.084854" CO2_abs="1863247.499084" HC_abs="251.395114" PMx_abs="32.080962" NOx_abs="751.758032" fuel_abs="594302.442133" electricity_abs="0"/>
    </tripinfo>
    <tripinfo id="20" depart="18000.00" departLane="123867455_0" departPos="5.10" departSpeed="0.00" departDelay="0.00" arrival="18758.00" arrivalLane="123867455_0" arrivalPos="904.85" arrivalSpeed="28.76" duration="758.00" routeLength="6719.97" waitingTime="212.00" waitingCount="7" stopTime="20.00" timeLoss="292.16" rerouteNo="3" devices="vehroute_20 tripinfo_20 emissions_20" vType="vecType" speedFactor="1.02" vaporized="">
        <emissions CO_abs="59806.172425" CO2_abs="2298734.990052" HC_abs="325.910691" PMx_abs="44.004597" NOx_abs="932.058362" fuel_abs="733204.683108" electricity_abs="0"/>
    </tripinfo>
    <tripinfo id="33" depart="18000.00" departLane="144489137#0_0" departPos="5.10" departSpeed="0.00" departDelay="0.00" arrival="18780.00" arrivalLane="144489137#0_0" arrivalPos="135.49" arrivalSpeed="12.62" duration="780.00" routeLength="3872.00" waitingTime="364.00" waitingCount="14" stopTime="20.00" timeLoss="467.24" rerouteNo="1" devices="vehroute_33 tripinfo_33 emissions_33" vType="vecType" speedFactor="1.17" vaporized="">
        <emissions CO_abs="78684.754244" CO2_abs="2091005.999468" HC_abs="405.897732" PMx_abs="42.552777" NOx_abs="889.816445" fuel_abs="666957.981627" electricity_abs="0"/>
    </tripinfo>
    <tripinfo id="82" depart="18123.00" departLane="-133781749_0" departPos="5.10" departSpeed="0.00" departDelay="3.00" arrival="18784.00" arrivalLane="-133781749_0" arrivalPos="138.68" arrivalSpeed="10.98" duration="661.00" routeLength="5499.56" waitingTime="100.00" waitingCount="8" stopTime="20.00" timeLoss="211.17" rerouteNo="1" devices="vehroute_82 tripinfo_82 emissions_82" vType="vecType" speedFactor="1.02" vaporized="">
        <emissions CO_abs="41802.618984" CO2_abs="1794072.633656" HC_abs="231.987400" PMx_abs="31.867936" NOx_abs="728.492148" fuel_abs="572236.026087" electricity_abs="0"/>
    </tripinfo>
    <tripinfo id="68" depart="18060.00" departLane="27167762_0" departPos="5.10" departSpeed="0.00" departDelay="0.00" arrival="18788.00" arrivalLane="27167762_0" arrivalPos="139.02" arrivalSpeed="22.71" duration="728.00" routeLength="12191.33" waitingTime="121.00" waitingCount="5" stopTime="0.00" timeLoss="194.15" rerouteNo="5" devices="vehroute_68 tripinfo_68 emissions_68" vType="vecType" speedFactor="1.04" vaporized="">
        <emissions CO_abs="62584.165211" CO2_abs="3174698.025424" HC_abs="362.687855" PMx_abs="67.525678" NOx_abs="1241.503628" fuel_abs="1012588.570579" electricity_abs="0"/>
    </tripinfo>
    <tripinfo id="27" depart="18000.00" departLane="-8916048_0" departPos="5.10" departSpeed="0.00" departDelay="0.00" arrival="18797.00" arrivalLane="-8916048_0" arrivalPos="126.72" arrivalSpeed="10.02" duration="797.00" routeLength="6742.86" waitingTime="108.00" waitingCount="6" stopTime="20.00" timeLoss="198.90" rerouteNo="1" devices="vehroute_27 tripinfo_27 emissions_27" vType="vecType" speedFactor="0.95" vaporized="">
        <emissions CO_abs="43602.613677" CO2_abs="1980501.963919" HC_abs="244.017575" PMx_abs="33.065286" NOx_abs="792.148641" fuel_abs="631699.946158" electricity_abs="0"/>
    </tripinfo>
    <tripinfo id="13" depart="18003.00" departLane="90077241_0" departPos="5.10" departSpeed="0.00" departDelay="3.00" arrival="18837.00" arrivalLane="90077241_0" arrivalPos="3225.35" arrivalSpeed="32.50" duration="834.00" routeLength="12752.38" waitingTime="216.00" waitingCount="7" stopTime="20.00" timeLoss="293.38" rerouteNo="1" devices="vehroute_13 tripinfo_13 emissions_13" vType="vecType" speedFactor="1.12" vaporized="">
        <emissions CO_abs="88931.946013" CO2_abs="3730254.039319" HC_abs="497.039656" PMx_abs="84.081761" NOx_abs="1482.734355" fuel_abs="1189791.360425" electricity_abs="0"/>
    </tripinfo>
    <tripinfo id="63" depart="18063.00" departLane="-204967525_0" departPos="5.10" departSpeed="0.00" departDelay="3.00" arrival="18840.00" arrivalLane="-204967525_1" arrivalPos="146.26" arrivalSpeed="10.06" duration="777.00" routeLength="4830.14" waitingTime="215.00" waitingCount="10" stopTime="20.00" timeLoss="318.47" rerouteNo="1" devices="vehroute_63 tripinfo_63 emissions_63" vType="vecType" speedFactor="0.99" vaporized="">
        <emissions CO_abs="57925.621404" CO2_abs="1850144.543355" HC_abs="306.553516" PMx_abs="33.904321" NOx_abs="767.166384" fuel_abs="590128.247995" electricity_abs="0"/>
    </tripinfo>
    <tripinfo id="84" depart="18123.00" departLane="90077241_0" departPos="5.10" departSpeed="0.00" departDelay="3.00" arrival="18856.00" arrivalLane="90077241_0" arrivalPos="3225.35" arrivalSpeed="32.65" duration="733.00" routeLength="12280.95" waitingTime="165.00" waitingCount="6" stopTime="20.00" timeLoss="237.68" rerouteNo="1" devices="vehroute_84 tripinfo_84 emissions_84" vType="vecType" speedFactor="1.15" vaporized="">
        <emissions CO_abs="81235.072715" CO2_abs="3463056.787928" HC_abs="455.611243" PMx_abs="79.601015" NOx_abs="1371.068497" fuel_abs="1104565.400144" electricity_abs="0"/>
    </tripinfo>
    <tripinfo id="40" depart="18000.00" departLane="-206679802#4_0" departPos="5.10" departSpeed="0.00" departDelay="0.00" arrival="18862.00" arrivalLane="-206679802#4_0" arrivalPos="292.11" arrivalSpeed="11.12" duration="862.00" routeLength="6162.76" waitingTime="209.00" waitingCount="7" stopTime="20.00" timeLoss="306.84" rerouteNo="7" devices="vehroute_40 tripinfo_40 emissions_40" vType="vecType" speedFactor="1.03" vaporized="">
        <emissions CO_abs="57825.049986" CO2_abs="2128154.270555" HC_abs="312.414715" PMx_abs="37.387774" NOx_abs="869.195247" fuel_abs="678799.631984" electricity_abs="0"/>
    </tripinfo>
    <tripinfo id="64" depart="18060.00" departLane="28319343#2_0" departPos="5.10" departSpeed="0.00" departDelay="0.00" arrival="18871.00" arrivalLane="28319343#2_0" arrivalPos="90.58" arrivalSpeed="9.95" duration="811.00" routeLength="9974.14" waitingTime="217.00" waitingCount="8" stopTime="0.00" timeLoss="285.31" rerouteNo="1" devices="vehroute_64 tripinfo_64 emissions_64" vType="vecType" speedFactor="0.94" vaporized="">
        <emissions CO_abs="64527.955296" CO2_abs="2739983.753987" HC_abs="357.963112" PMx_abs="54.222917" NOx_abs="1076.947143" fuel_abs="873942.419924" electricity_abs="0"/>
    </tripinfo>
    <tripinfo id="73" depart="18120.00" departLane="-204967525_0" departPos="5.10" departSpeed="0.00" departDelay="0.00" arrival="18878.00" arrivalLane="-204967525_1" arrivalPos="146.26" arrivalSpeed="11.15" duration="758.00" routeLength="5090.57" waitingTime="216.00" waitingCount="9" stopTime="20.00" timeLoss="306.38" rerouteNo="1" devices="vehroute_73 tripinfo_73 emissions_73" vType="vecType" speedFactor="1.06" vaporized="">
        <emissions CO_abs="57941.857522" CO2_abs="1991543.639260" HC_abs="310.021781" PMx_abs="37.251435" NOx_abs="828.959484" fuel_abs="635225.844290" electricity_abs="0"/>
    </tripinfo>
    <tripinfo id="0" depart="18000.00" departLane="84823308_0" departPos="5.10" departSpeed="0.00" departDelay="0.00" arrival="18884.00" arrivalLane="84823308_0" arrivalPos="275.63" arrivalSpeed="11.55" duration="884.00" routeLength="5830.57" waitingTime="263.00" waitingCount="12" stopTime="20.00" timeLoss="371.50" rerouteNo="8" devices="vehroute_0 tripinfo_0 emissions_0" vType="vecType" speedFactor="1.06" vaporized="">
        <emissions CO_abs="67136.704826" CO2_abs="2250388.031891" HC_abs="357.599538" PMx_abs="41.140350" NOx_abs="929.162493" fuel_abs="717789.509427" electricity_abs="0"/>
    </tripinfo>
    <tripinfo id="42" depart="18009.00" departLane="31129765_0" departPos="5.10" departSpeed="0.00" departDelay="9.00" arrival="18889.00" arrivalLane="31129765_0" arrivalPos="639.51" arrivalSpeed="23.60" duration="880.00" routeLength="7763.38" waitingTime="283.00" waitingCount="12" stopTime="20.00" timeLoss="392.05" rerouteNo="1" devices="vehroute_42 tripinfo_42 emissions_42" vType="vecType" speedFactor="1.09" vaporized="">
        <emissions CO_abs="78327.730741" CO2_abs="2839840.758418" HC_abs="423.013088" PMx_abs="57.491913" NOx_abs="1171.253072" fuel_abs="905795.101409" electricity_abs="0"/>
    </tripinfo>
    <tripinfo id="85" depart="18126.00" departLane="90077241_0" departPos="5.10" departSpeed="0.00" departDelay="6.00" arrival="18894.00" arrivalLane="90077241_0" arrivalPos="3225.35" arrivalSpeed="28.15" duration="768.00" routeLength="11984.76" waitingTime="145.00" waitingCount="7" stopTime="20.00" timeLoss="218.78" rerouteNo="1" devices="vehroute_85 tripinfo_85 emissions_85" vType="vecType" speedFactor="0.98" vaporized="">
        <emissions CO_abs="62941.129623" CO2_abs="3081824.793027" HC_abs="361.162832" PMx_abs="64.509681" NOx_abs="1204.731897" fuel_abs="982968.037637" electricity_abs="0"/>
    </tripinfo>
    <tripinfo id="29" depart="18000.00" departLane="-35977367#2_0" departPos="5.10" departSpeed="0.00" departDelay="0.00" arrival="18896.00" arrivalLane="-35977367#2_0" arrivalPos="431.73" arrivalSpeed="10.00" duration="896.00" routeLength="6273.32" waitingTime="177.00" waitingCount="7" stopTime="20.00" timeLoss="272.85" rerouteNo="3" devices="vehroute_29 tripinfo_29 emissions_29" vType="vecType" speedFactor="0.93" vaporized="">
        <emissions CO_abs="55409.762853" CO2_abs="2068841.905551" HC_abs="299.889393" PMx_abs="35.099678" NOx_abs="840.892687" fuel_abs="659881.816262" electricity_abs="0"/>
    </tripinfo>
    <tripinfo id="10" depart="18000.00" departLane="90077241_0" departPos="5.10" departSpeed="0.00" departDelay="0.00" arrival="18907.00" arrivalLane="90077241_0" arrivalPos="3225.35" arrivalSpeed="30.99" duration="907.00" routeLength="12917.03" waitingTime="244.00" waitingCount="9" stopTime="20.00" timeLoss="337.64" rerouteNo="5" devices="vehroute_10 tripinfo_10 emissions_10" vType="vecType" speedFactor="1.09" vaporized="">
        <emissions CO_abs="92007.733632" CO2_abs="3793926.816113" HC_abs="511.966636" PMx_abs="83.829131" NOx_abs="1512.726387" fuel_abs="1210101.956888" electricity_abs="0"/>
    </tripinfo>
    <tripinfo id="25" depart="18003.00" departLane="-23883761_0" departPos="5.10" departSpeed="0.00" departDelay="3.00" arrival="18907.00" arrivalLane="-23883761_0" arrivalPos="197.88" arrivalSpeed="8.75" duration="904.00" routeLength="5896.49" waitingTime="181.00" waitingCount="11" stopTime="20.00" timeLoss="279.53" rerouteNo="2" devices="vehroute_25 tripinfo_25 emissions_25" vType="vecType" speedFactor="0.87" vaporized="">
        <emissions CO_abs="56866.206921" CO2_abs="1960785.685534" HC_abs="303.833054" PMx_abs="33.027078" NOx_abs="797.114470" fuel_abs="625418.894610" electricity_abs="0"/>
    </tripinfo>
    <tripinfo id="99" depart="18180.00" departLane="-27029204_0" departPos="5.10" departSpeed="0.00" departDelay="0.00" arrival="18919.00" arrivalLane="-27029204_0" arrivalPos="195.60" arrivalSpeed="11.68" duration="739.00" routeLength="5700.35" waitingTime="215.00" waitingCount="9" stopTime="20.00" timeLoss="304.52" rerouteNo="1" devices="vehroute_99 tripinfo_99 emissions_99" vType="vecType" speedFactor="1.10" vaporized="">
        <emissions CO_abs="57244.454671" CO2_abs="2078443.773159" HC_abs="308.610650" PMx_abs="39.109748" NOx_abs="854.794302" fuel_abs="662942.156119" electricity_abs="0"/>
    </tripinfo>
    <tripinfo id="88" depart="18123.00" departLane="31129765_0" departPos="5.10" departSpeed="0.00" departDelay="3.00" arrival="18927.00" arrivalLane="31129765_0" arrivalPos="639.51" arrivalSpeed="21.93" duration="804.00" routeLength="6946.37" waitingTime="258.00" waitingCount="10" stopTime="20.00" timeLoss="349.82" rerouteNo="1" devices="vehroute_88 tripinfo_88 emissions_88" vType="vecType" speedFactor="1.01" vaporized="">
        <emissions CO_abs="70100.909641" CO2_abs="2500460.325668" HC_abs="377.907394" PMx_abs="49.746510" NOx_abs="1027.457432" fuel_abs="797547.991711" electricity_abs="0"/>
    </tripinfo>
    <tripinfo id="53" depart="18060.00" departLane="-27029200#2_0" departPos="5.10" departSpeed="0.00" departDelay="0.00" arrival="18932.00" arrivalLane="-27029200#2_0" arrivalPos="66.62" arrivalSpeed="11.16" duration="872.00" routeLength="6523.13" waitingTime="252.00" waitingCount="12" stopTime="20.00" timeLoss="369.69" rerouteNo="3" devices="vehroute_53 tripinfo_53 emissions_53" vType="vecType" speedFactor="1.10" vaporized="">
        <emissions CO_abs="69322.333160" CO2_abs="2462101.363700" HC_abs="372.696179" PMx_abs="47.130285" NOx_abs="1020.953885" fuel_abs="785313.692224" electricity_abs="0"/>
    </tripinfo>
    <tripinfo id="2" depart="18000.00" departLane="142972028#1_0" departPos="5.10" departSpeed="0.00" departDelay="0.00" arrival="18938.00" arrivalLane="142972028#1_0" arrivalPos="161.20" arrivalSpeed="10.26" duration="938.00" routeLength="6951.71" waitingTime="241.00" waitingCount="12" stopTime="20.00" timeLoss="360.68" rerouteNo="2" devices="vehroute_2 tripinfo_2 emissions_2" vType="vecType" speedFactor="1.01" vaporized="">
        <emissions CO_abs="68114.942788" CO2_abs="2471884.279076" HC_abs="367.264155" PMx_abs="44.750782" NOx_abs="1010.344192" fuel_abs="788435.942769" electricity_abs="0"/>
    </tripinfo>
    <tripinfo id="24" depart="18003.00" departLane="123867455_0" departPos="5.10" departSpeed="0.00" departDelay="3.00" arrival="18951.00" arrivalLane="123867455_0" arrivalPos="904.85" arrivalSpeed="23.15" duration="948.00" routeLength="6219.34" waitingTime="296.00" waitingCount="12" stopTime="20.00" timeLoss="410.08" rerouteNo="2" devices="vehroute_24 tripinfo_24 emissions_24" vType="vecType" speedFactor="0.83" vaporized="">
        <emissions CO_abs="81211.928115" CO2_abs="2498525.596942" HC_abs="427.308672" PMx_abs="48.966826" NOx_abs="1034.821258" fuel_abs="796937.560772" electricity_abs="0"/>
    </tripinfo>
    <tripinfo id="43" depart="18012.00" departLane="123867455_0" departPos="5.10" departSpeed="0.00" departDelay="12.00" arrival="18956.00" arrivalLane="123867455_0" arrivalPos="904.85" arrivalSpeed="29.19" duration="944.00" routeLength="8280.56" waitingTime="226.00" waitingCount="11" stopTime="20.00" timeLoss="351.50" rerouteNo="2" devices="vehroute_43 tripinfo_43 emissions_43" vType="vecType" speedFactor="1.04" vaporized="">
        <emissions CO_abs="71103.990242" CO2_abs="2827362.786007" HC_abs="389.956925" PMx_abs="53.742557" NOx_abs="1153.184244" fuel_abs="901814.079877" electricity_abs="0"/>
    </tripinfo>
    <tripinfo id="90" depart="18120.00" departLane="-254758120#3_0" departPos="5.10" departSpeed="0.00" departDelay="0.00" arrival="18957.00" arrivalLane="-254758120#3_0" arrivalPos="147.41" arrivalSpeed="10.35" duration="837.00" routeLength="5221.94" waitingTime="265.00" waitingCount="10" stopTime="20.00" timeLoss="357.46" rerouteNo="1" devices="vehroute_90 tripinfo_90 emissions_90" vType="vecType" speedFactor="1.02" vaporized="">
        <emissions CO_abs="65140.165607" CO2_abs="2032312.778344" HC_abs="343.552125" PMx_abs="37.269440" NOx_abs="840.728689" fuel_abs="648234.341008" electricity_abs="0"/>
    </tripinfo>
    <tripinfo id="3" depart="18000.00" departLane="-133781749_0" departPos="5.10" departSpeed="0.00" departDelay="0.00" arrival="18958.00" arrivalLane="-133781749_0" arrivalPos="138.68" arrivalSpeed="11.90" duration="958.00" routeLength="7501.04" waitingTime="227.00" waitingCount="16" stopTime="20.00" timeLoss="369.46" rerouteNo="1" devices="vehroute_3 tripinfo_3 emissions_3" vType="vecType" speedFactor="1.08" vaporized="">
        <emissions CO_abs="69521.089266" CO2_abs="2658660.482322" HC_abs="377.988084" PMx_abs="49.405367" NOx_abs="1092.917462" fuel_abs="848006.673514" electricity_abs="0"/>
    </tripinfo>
    <tripinfo id="75" depart="18120.00" departLane="-254297762#2_0" departPos="5.10" departSpeed="0.00" departDelay="0.00" arrival="18961.00" arrivalLane="-254297762#2_0" arrivalPos="291.17" arrivalSpeed="10.95" duration="841.00" routeLength="5758.38" waitingTime="191.00" waitingCount="11" stopTime="20.00" timeLoss="297.45" rerouteNo="2" devices="vehroute_75 tripinfo_75 emissions_75" vType="vecType" speedFactor="0.98" vaporized="">
        <emissions CO_abs="57521.522503" CO2_abs="2058948.258509" HC_abs="309.491272" PMx_abs="36.348864" NOx_abs="844.495177" fuel_abs="656726.162978" electricity_abs="0"/>
    </tripinfo>
    <tripinfo id="9" depart="18000.00" departLane="23959829#0_0" departPos="5.10" departSpeed="0.00" departDelay="0.00" arrival="18966.00" arrivalLane="23959829#0_0" arrivalPos="45.86" arrivalSpeed="8.34" duration="966.00" routeLength="6745.88" waitingTime="197.00" waitingCount="10" stopTime="20.00" timeLoss="306.55" rerouteNo="2" devices="vehroute_9 tripinfo_9 emissions_9" vType="vecType" speedFactor="0.86" vaporized="">
        <emissions CO_abs="63121.897096" CO2_abs="2268363.083128" HC_abs="338.940640" PMx_abs="38.930262" NOx_abs="919.350206" fuel_abs="723522.637285" electricity_abs="0"/>
    </tripinfo>
    <tripinfo id="56" depart="18066.00" departLane="31129765_0" departPos="5.10" departSpeed="0.00" departDelay="6.00" arrival="18969.00" arrivalLane="31129765_0" arrivalPos="639.51" arrivalSpeed="19.57" duration="903.00" routeLength="13447.31" waitingTime="170.00" waitingCount="5" stopTime="0.00" timeLoss="237.95" rerouteNo="4" devices="vehroute_56 tripinfo_56 emissions_56" vType="vecType" speedFactor="0.90" vaporized="">
        <emissions CO_abs="60653.180226" CO2_abs="3232789.135304" HC_abs="351.374419" PMx_abs="62.014439" NOx_abs="1240.557137" fuel_abs="1031120.406866" electricity_abs="0"/>
    </tripinfo>