<?xml version="1.0" encoding="UTF-8"?>

<!-- generated on 2022-12-17 16:38:18 by Eclipse SUMO sumo Version 1.14.1
<configuration xmlns:xsi="http://www.w3.org/2001/XMLSchema-instance" xsi:noNamespaceSchemaLocation="http://sumo.dlr.de/xsd/sumoConfiguration.xsd">

    <input>
        <net-file value="./strategia1_config/../san_francisco.net.xml"/>
        <route-files value="./strategia1_config/../san_francisco.rou.xml"/>
        <additional-files value="./strategia1_config/../san_francisco.poly.xml,./strategia1_config/../parking_capacity_100%25/off_parking_100%25.add.xml,./strategia1_config/../parking_capacity_100%25/on_parking_100%25.add.xml"/>
    </input>

    <output>
        <emission-output value="./strategia1_config/../output/strategia1/100%25/emissions.xml"/>
        <tripinfo-output value="./strategia1_config/../output/strategia1/100%25/tripinfo.xml"/>
        <vehroute-output value="./strategia1_config/../output/strategia1/100%25/vehroute.xml"/>
        <stop-output value="./strategia1_config/../output/strategia1/100%25/stops.xml"/>
        <collision-output value="./strategia1_config/../output/strategia1/100%25/collision.xml"/>
        <statistic-output value="./strategia1_config/../output/strategia1/100%25/statistic.xml"/>
    </output>

    <time>
        <step-length value="1"/>
    </time>

    <processing>
        <ignore-route-errors value="false"/>
        <time-to-teleport value="-1"/>
    </processing>

    <report>
        <verbose value="true"/>
        <xml-validation value="never"/>
    </report>

    <traci_server>
        <remote-port value="64419"/>
    </traci_server>

    <gui_only>
        <gui-settings-file value="./strategia1_config/../gui-settings.cfg"/>
        <start value="true"/>
    </gui_only>

</configuration>
-->

<tripinfos xmlns:xsi="http://www.w3.org/2001/XMLSchema-instance" xsi:noNamespaceSchemaLocation="http://sumo.dlr.de/xsd/tripinfo_file.xsd">
    <tripinfo id="30" depart="18000.00" departLane="-91181760#0_0" departPos="5.10" departSpeed="0.00" departDelay="0.00" arrival="18345.00" arrivalLane="-91181760#0_0" arrivalPos="79.70" arrivalSpeed="12.80" duration="345.00" routeLength="3660.42" waitingTime="1.00" waitingCount="1" stopTime="20.00" timeLoss="46.41" rerouteNo="1" devices="vehroute_30 tripinfo_30 emissions_30" vType="vecType" speedFactor="1.18" vaporized="">
        <emissions CO_abs="12439.232988" CO2_abs="962370.303577" HC_abs="78.329472" PMx_abs="15.436935" NOx_abs="379.995232" fuel_abs="306952.359183" electricity_abs="0"/>
    </tripinfo>
    <tripinfo id="1" depart="18000.00" departLane="31129765_0" departPos="5.10" departSpeed="0.00" departDelay="0.00" arrival="18354.00" arrivalLane="31129765_0" arrivalPos="639.51" arrivalSpeed="20.91" duration="354.00" routeLength="4341.32" waitingTime="22.00" waitingCount="2" stopTime="20.00" timeLoss="65.46" rerouteNo="1" devices="vehroute_1 tripinfo_1 emissions_1" vType="vecType" speedFactor="0.94" vaporized="">
        <emissions CO_abs="18683.740594" CO2_abs="1168617.545129" HC_abs="111.747973" PMx_abs="20.950357" NOx_abs="460.719064" fuel_abs="372736.547963" electricity_abs="0"/>
    </tripinfo>
    <tripinfo id="45" depart="18060.00" departLane="31129765_0" departPos="5.10" departSpeed="0.00" departDelay="0.00" arrival="18385.00" arrivalLane="31129765_0" arrivalPos="639.51" arrivalSpeed="23.06" duration="325.00" routeLength="4234.28" waitingTime="37.00" waitingCount="1" stopTime="20.00" timeLoss="81.46" rerouteNo="1" devices="vehroute_45 tripinfo_45 emissions_45" vType="vecType" speedFactor="1.09" vaporized="">
        <emissions CO_abs="22740.246300" CO2_abs="1284134.352936" HC_abs="134.079550" PMx_abs="25.632859" NOx_abs="517.884756" fuel_abs="409580.303395" electricity_abs="0"/>
    </tripinfo>
    <tripinfo id="28" depart="18009.00" departLane="90077241_0" departPos="5.10" departSpeed="0.00" departDelay="9.00" arrival="18647.00" arrivalLane="90077241_0" arrivalPos="3225.35" arrivalSpeed="32.57" duration="638.00" routeLength="11976.91" waitingTime="120.00" waitingCount="4" stopTime="20.00" timeLoss="184.39" rerouteNo="2" devices="vehroute_28 tripinfo_28 emissions_28" vType="vecType" speedFactor="1.13" vaporized="">
        <emissions CO_abs="71466.085856" CO2_abs="3326346.046937" HC_abs="408.574814" PMx_abs="76.946981" NOx_abs="1312.431288" fuel_abs="1060956.542492" electricity_abs="0"/>
    </tripinfo>
    <tripinfo id="49" depart="18063.00" departLane="31129765_0" departPos="5.10" departSpeed="0.00" departDelay="3.00" arrival="18664.00" arrivalLane="31129765_0" arrivalPos="639.51" arrivalSpeed="18.84" duration="601.00" routeLength="12944.78" waitingTime="0.00" waitingCount="0" stopTime="20.00" timeLoss="34.41" rerouteNo="1" devices="vehroute_49 tripinfo_49 emissions_49" vType="vecType" speedFactor="0.85" vaporized="">
        <emissions CO_abs="22588.163463" CO2_abs="2470773.175456" HC_abs="158.429797" PMx_abs="44.714318" NOx_abs="895.715453" fuel_abs="788060.044053" electricity_abs="0"/>
    </tripinfo>
    <tripinfo id="16" depart="18006.00" departLane="90077241_0" departPos="5.10" departSpeed="0.00" departDelay="6.00" arrival="18689.00" arrivalLane="90077241_0" arrivalPos="3225.35" arrivalSpeed="24.81" duration="683.00" routeLength="11625.26" waitingTime="83.00" waitingCount="2" stopTime="20.00" timeLoss="139.06" rerouteNo="1" devices="vehroute_16 tripinfo_16 emissions_16" vType="vecType" speedFactor="0.88" vaporized="">
        <emissions CO_abs="41025.125829" CO2_abs="2658666.100326" HC_abs="247.769443" PMx_abs="50.803234" NOx_abs="1002.580531" fuel_abs="847995.467845" electricity_abs="0"/>
    </tripinfo>
    <tripinfo id="36" depart="18009.00" departLane="123867455_0" departPos="5.10" departSpeed="0.00" departDelay="9.00" arrival="18703.00" arrivalLane="123867455_0" arrivalPos="904.85" arrivalSpeed="27.24" duration="694.00" routeLength="5347.03" waitingTime="259.00" waitingCount="7" stopTime="20.00" timeLoss="341.10" rerouteNo="2" devices="vehroute_36 tripinfo_36 emissions_36" vType="vecType" speedFactor="0.97" vaporized="">
        <emissions CO_abs="66626.523158" CO2_abs="2148674.362499" HC_abs="354.156807" PMx_abs="44.584900" NOx_abs="895.078381" fuel_abs="685344.186878" electricity_abs="0"/>
    </tripinfo>
    <tripinfo id="31" depart="18006.00" departLane="123867455_0" departPos="5.10" departSpeed="0.00" departDelay="6.00" arrival="18726.00" arrivalLane="123867455_0" arrivalPos="904.85" arrivalSpeed="32.44" duration="720.00" routeLength="7632.90" waitingTime="121.00" waitingCount="7" stopTime="20.00" timeLoss="235.91" rerouteNo="1" devices="vehroute_31 tripinfo_31 emissions_31" vType="vecType" speedFactor="1.15" vaporized="">
        <emissions CO_abs="49598.748786" CO2_abs="2358726.270340" HC_abs="280.868761" PMx_abs="45.022037" NOx_abs="953.946635" fuel_abs="752332.325318" electricity_abs="0"/>
    </tripinfo>
    <tripinfo id="15" depart="18000.00" departLane="-24310636#2_0" departPos="5.10" departSpeed="0.00" departDelay="0.00" arrival="18755.00" arrivalLane="-24310636#2_1" arrivalPos="108.36" arrivalSpeed="9.56" duration="755.00" routeLength="6010.81" waitingTime="132.00" waitingCount="7" stopTime="20.00" timeLoss="214.32" rerouteNo="1" devices="vehroute_15 tripinfo_15 emissions_15" vType="vecType" speedFactor="0.93" vaporized="">
        <emissions CO_abs="45653.533892" CO2_abs="1878592.946016" HC_abs="250.814704" PMx_abs="31.930247" NOx_abs="755.318475" fuel_abs="599197.120664" electricity_abs="0"/>
    </tripinfo>
    <tripinfo id="20" depart="18000.00" departLane="123867455_0" departPos="5.10" departSpeed="0.00" departDelay="0.00" arrival="18758.00" arrivalLane="123867455_0" arrivalPos="904.85" arrivalSpeed="29.54" duration="758.00" routeLength="6719.97" waitingTime="208.00" waitingCount="7" stopTime="20.00" timeLoss="292.35" rerouteNo="3" devices="vehroute_20 tripinfo_20 emissions_20" vType="vecType" speedFactor="1.02" vaporized="">
        <emissions CO_abs="60052.745968" CO2_abs="2293763.008032" HC_abs="327.244375" PMx_abs="44.227342" NOx_abs="932.497697" fuel_abs="731618.703198" electricity_abs="0"/>
    </tripinfo>
    <tripinfo id="39" depart="18006.00" departLane="31129765_0" departPos="5.10" departSpeed="0.00" departDelay="6.00" arrival="18759.00" arrivalLane="31129765_0" arrivalPos="639.51" arrivalSpeed="19.87" duration="753.00" routeLength="6254.53" waitingTime="245.00" waitingCount="7" stopTime="20.00" timeLoss="316.66" rerouteNo="3" devices="vehroute_39 tripinfo_39 emissions_39" vType="vecType" speedFactor="0.90" vaporized="">
        <emissions CO_abs="62136.693920" CO2_abs="2161057.292723" HC_abs="332.538522" PMx_abs="42.239934" NOx_abs="884.020529" fuel_abs="689293.247387" electricity_abs="0"/>
    </tripinfo>
    <tripinfo id="33" depart="18000.00" departLane="144489137#0_0" departPos="5.10" departSpeed="0.00" departDelay="0.00" arrival="18781.00" arrivalLane="144489137#0_0" arrivalPos="135.49" arrivalSpeed="12.94" duration="781.00" routeLength="3872.00" waitingTime="364.00" waitingCount="14" stopTime="20.00" timeLoss="467.43" rerouteNo="1" devices="vehroute_33 tripinfo_33 emissions_33" vType="vecType" speedFactor="1.17" vaporized="">
        <emissions CO_abs="79518.182554" CO2_abs="2106830.187229" HC_abs="410.375249" PMx_abs="43.154481" NOx_abs="899.140427" fuel_abs="672005.152785" electricity_abs="0"/>
    </tripinfo>
    <tripinfo id="27" depart="18000.00" departLane="-8916048_0" departPos="5.10" departSpeed="0.00" departDelay="0.00" arrival="18794.00" arrivalLane="-8916048_0" arrivalPos="126.72" arrivalSpeed="9.32" duration="794.00" routeLength="6742.86" waitingTime="112.00" waitingCount="3" stopTime="20.00" timeLoss="196.83" rerouteNo="1" devices="vehroute_27 tripinfo_27 emissions_27" vType="vecType" speedFactor="0.95" vaporized="">
        <emissions CO_abs="43236.997324" CO2_abs="1975334.107710" HC_abs="242.067633" PMx_abs="32.986394" NOx_abs="789.930782" fuel_abs="630051.445704" electricity_abs="0"/>
    </tripinfo>
    <tripinfo id="21" depart="18000.00" departLane="27167762_0" departPos="5.10" departSpeed="0.00" departDelay="0.00" arrival="18824.00" arrivalLane="27167762_0" arrivalPos="139.02" arrivalSpeed="22.25" duration="824.00" routeLength="6243.21" waitingTime="257.00" waitingCount="11" stopTime="20.00" timeLoss="365.72" rerouteNo="5" devices="vehroute_21 tripinfo_21 emissions_21" vType="vecType" speedFactor="1.01" vaporized="">
        <emissions CO_abs="71183.906150" CO2_abs="2450788.764438" HC_abs="381.531165" PMx_abs="48.139259" NOx_abs="1014.541018" fuel_abs="781706.196900" electricity_abs="0"/>
    </tripinfo>
    <tripinfo id="13" depart="18003.00" departLane="90077241_0" departPos="5.10" departSpeed="0.00" departDelay="3.00" arrival="18835.00" arrivalLane="90077241_0" arrivalPos="3225.35" arrivalSpeed="32.59" duration="832.00" routeLength="12752.38" waitingTime="216.00" waitingCount="7" stopTime="20.00" timeLoss="291.90" rerouteNo="1" devices="vehroute_13 tripinfo_13 emissions_13" vType="vecType" speedFactor="1.12" vaporized="">
        <emissions CO_abs="87958.507534" CO2_abs="3699786.697757" HC_abs="491.977778" PMx_abs="83.615549" NOx_abs="1467.704790" fuel_abs="1180073.515474" electricity_abs="0"/>
    </tripinfo>
    <tripinfo id="2" depart="18000.00" departLane="142972028#1_0" departPos="5.10" departSpeed="0.00" departDelay="0.00" arrival="18847.00" arrivalLane="142972028#1_0" arrivalPos="161.20" arrivalSpeed="10.54" duration="847.00" routeLength="6951.71" waitingTime="160.00" waitingCount="8" stopTime="20.00" timeLoss="269.03" rerouteNo="2" devices="vehroute_2 tripinfo_2 emissions_2" vType="vecType" speedFactor="1.01" vaporized="">
        <emissions CO_abs="53047.313689" CO2_abs="2178550.267230" HC_abs="291.819940" PMx_abs="38.236293" NOx_abs="882.587110" fuel_abs="694870.595469" electricity_abs="0"/>
    </tripinfo>
    <tripinfo id="40" depart="18000.00" departLane="-206679802#4_0" departPos="5.10" departSpeed="0.00" departDelay="0.00" arrival="18863.00" arrivalLane="-206679802#4_0" arrivalPos="292.11" arrivalSpeed="11.40" duration="863.00" routeLength="6247.90" waitingTime="205.00" waitingCount="7" stopTime="20.00" timeLoss="300.08" rerouteNo="7" devices="vehroute_40 tripinfo_40 emissions_40" vType="vecType" speedFactor="1.03" vaporized="">
        <emissions CO_abs="57439.572715" CO2_abs="2139450.298196" HC_abs="310.936047" PMx_abs="37.542759" NOx_abs="873.548030" fuel_abs="682402.245089" electricity_abs="0"/>
    </tripinfo>
    <tripinfo id="47" depart="18060.00" departLane="90077241_0" departPos="5.10" departSpeed="0.00" departDelay="0.00" arrival="18867.00" arrivalLane="90077241_0" arrivalPos="3225.35" arrivalSpeed="25.75" duration="807.00" routeLength="12601.24" waitingTime="82.00" waitingCount="5" stopTime="20.00" timeLoss="149.21" rerouteNo="4" devices="vehroute_47 tripinfo_47 emissions_47" vType="vecType" speedFactor="0.90" vaporized="">
        <emissions CO_abs="46857.944605" CO2_abs="2876724.988723" HC_abs="280.479970" PMx_abs="54.755216" NOx_abs="1095.746476" fuel_abs="917547.830225" electricity_abs="0"/>
    </tripinfo>
    <tripinfo id="0" depart="18000.00" departLane="84823308_0" departPos="5.10" departSpeed="0.00" departDelay="0.00" arrival="18885.00" arrivalLane="84823308_0" arrivalPos="275.63" arrivalSpeed="10.79" duration="885.00" routeLength="5978.76" waitingTime="262.00" waitingCount="11" stopTime="20.00" timeLoss="359.63" rerouteNo="8" devices="vehroute_0 tripinfo_0 emissions_0" vType="vecType" speedFactor="1.06" vaporized="">
        <emissions CO_abs="66003.596708" CO2_abs="2240214.874777" HC_abs="352.160174" PMx_abs="40.542739" NOx_abs="921.646156" fuel_abs="714544.639151" electricity_abs="0"/>
    </tripinfo>
    <tripinfo id="42" depart="18009.00" departLane="31129765_0" departPos="5.10" departSpeed="0.00" departDelay="9.00" arrival="18891.00" arrivalLane="31129765_0" arrivalPos="639.51" arrivalSpeed="24.00" duration="882.00" routeLength="7763.38" waitingTime="284.00" waitingCount="11" stopTime="20.00" timeLoss="393.84" rerouteNo="1" devices="vehroute_42 tripinfo_42 emissions_42" vType="vecType" speedFactor="1.09" vaporized="">
        <emissions CO_abs="78611.942397" CO2_abs="2846966.049534" HC_abs="424.581025" PMx_abs="57.605352" NOx_abs="1173.282321" fuel_abs="908067.908778" electricity_abs="0"/>
    </tripinfo>
    <tripinfo id="29" depart="18000.00" departLane="-35977367#2_0" departPos="5.10" departSpeed="0.00" departDelay="0.00" arrival="18897.00" arrivalLane="-35977367#2_0" arrivalPos="431.73" arrivalSpeed="10.02" duration="897.00" routeLength="6273.32" waitingTime="181.00" waitingCount="9" stopTime="20.00" timeLoss="274.38" rerouteNo="3" devices="vehroute_29 tripinfo_29 emissions_29" vType="vecType" speedFactor="0.93" vaporized="">
        <emissions CO_abs="55813.992169" CO2_abs="2097413.104069" HC_abs="302.341180" PMx_abs="35.270780" NOx_abs="850.116602" fuel_abs="668995.099738" electricity_abs="0"/>
    </tripinfo>
    <tripinfo id="10" depart="18000.00" departLane="90077241_0" departPos="5.10" departSpeed="0.00" departDelay="0.00" arrival="18906.00" arrivalLane="90077241_0" arrivalPos="3225.35" arrivalSpeed="30.48" duration="906.00" routeLength="12917.03" waitingTime="240.00" waitingCount="9" stopTime="20.00" timeLoss="335.94" rerouteNo="5" devices="vehroute_10 tripinfo_10 emissions_10" vType="vecType" speedFactor="1.09" vaporized="">
        <emissions CO_abs="91839.040324" CO2_abs="3795612.873434" HC_abs="511.206983" PMx_abs="83.965778" NOx_abs="1514.391068" fuel_abs="1210639.424128" electricity_abs="0"/>
    </tripinfo>
    <tripinfo id="25" depart="18003.00" departLane="-23883761_0" departPos="5.10" departSpeed="0.00" departDelay="3.00" arrival="18907.00" arrivalLane="-23883761_0" arrivalPos="197.88" arrivalSpeed="8.68" duration="904.00" routeLength="5896.49" waitingTime="177.00" waitingCount="11" stopTime="20.00" timeLoss="279.39" rerouteNo="2" devices="vehroute_25 tripinfo_25 emissions_25" vType="vecType" speedFactor="0.87" vaporized="">
        <emissions CO_abs="56844.577572" CO2_abs="1961423.712059" HC_abs="303.739594" PMx_abs="32.967538" NOx_abs="796.741496" fuel_abs="625622.469573" electricity_abs="0"/>
    </tripinfo>
    <tripinfo id="24" depart="18003.00" departLane="123867455_0" departPos="5.10" departSpeed="0.00" departDelay="3.00" arrival="18950.00" arrivalLane="123867455_0" arrivalPos="904.85" arrivalSpeed="23.77" duration="947.00" routeLength="6219.34" waitingTime="296.00" waitingCount="12" stopTime="20.00" timeLoss="409.56" rerouteNo="2" devices="vehroute_24 tripinfo_24 emissions_24" vType="vecType" speedFactor="0.83" vaporized="">
        <emissions CO_abs="81345.509184" CO2_abs="2505233.856913" HC_abs="428.312209" PMx_abs="49.087497" NOx_abs="1038.734430" fuel_abs="799077.263652" electricity_abs="0"/>
    </tripinfo>
    <tripinfo id="3" depart="18000.00" departLane="-133781749_0" departPos="5.10" departSpeed="0.00" departDelay="0.00" arrival="18957.00" arrivalLane="-133781749_0" arrivalPos="138.68" arrivalSpeed="11.32" duration="957.00" routeLength="7501.04" waitingTime="219.00" waitingCount="13" stopTime="20.00" timeLoss="368.68" rerouteNo="1" devices="vehroute_3 tripinfo_3 emissions_3" vType="vecType" speedFactor="1.08" vaporized="">
        <emissions CO_abs="69517.522957" CO2_abs="2704213.871212" HC_abs="379.085061" PMx_abs="50.174118" NOx_abs="1111.694214" fuel_abs="862535.680418" electricity_abs="0"/>
    </tripinfo>
    <tripinfo id="9" depart="18000.00" departLane="23959829#0_0" departPos="5.10" departSpeed="0.00" departDelay="0.00" arrival="18966.00" arrivalLane="23959829#0_0" arrivalPos="45.86" arrivalSpeed="9.50" duration="966.00" routeLength="6745.88" waitingTime="205.00" waitingCount="9" stopTime="20.00" timeLoss="306.58" rerouteNo="2" devices="vehroute_9 tripinfo_9 emissions_9" vType="vecType" speedFactor="0.86" vaporized="">
        <emissions CO_abs="63902.648152" CO2_abs="2298864.623829" HC_abs="343.287956" PMx_abs="39.473527" NOx_abs="932.938900" fuel_abs="733251.422545" electricity_abs="0"/>
    </tripinfo>
    <tripinfo id="12" depart="18000.00" departLane="-23883761_0" departPos="5.10" departSpeed="0.00" departDelay="0.00" arrival="18971.00" arrivalLane="-23883761_0" arrivalPos="197.88" arrivalSpeed="10.72" duration="971.00" routeLength="6232.50" waitingTime="301.00" waitingCount="14" stopTime="20.00" timeLoss="418.60" rerouteNo="6" devices="vehroute_12 tripinfo_12 emissions_12" vType="vecType" speedFactor="1.05" vaporized="">
        <emissions CO_abs="75645.156484" CO2_abs="2436224.126683" HC_abs="400.744474" PMx_abs="45.244737" NOx_abs="1011.379979" fuel_abs="777065.285770" electricity_abs="0"/>
    </tripinfo>
    <tripinfo id="41" depart="18003.00" departLane="144489137#0_0" departPos="5.10" departSpeed="0.00" departDelay="3.00" arrival="18974.00" arrivalLane="144489137#0_0" arrivalPos="135.49" arrivalSpeed="10.43" duration="971.00" routeLength="5119.82" waitingTime="373.00" waitingCount="15" stopTime="20.00" timeLoss="475.68" rerouteNo="1" devices="vehroute_41 tripinfo_41 emissions_41" vType="vecType" speedFactor="0.96" vaporized="">
        <emissions CO_abs="85302.298645" CO2_abs="2341780.356652" HC_abs="442.503538" PMx_abs="44.976016" NOx_abs="984.311450" fuel_abs="746947.288743" electricity_abs="0"/>
    </tripinfo>
    <tripinfo id="34" depart="18000.00" departLane="-133755930#1_0" departPos="5.10" departSpeed="0.00" departDelay="0.00" arrival="19005.00" arrivalLane="-133755930#1_1" arrivalPos="16.00" arrivalSpeed="10.56" duration="1005.00" routeLength="4779.15" waitingTime="447.00" waitingCount="15" stopTime="20.00" timeLoss="554.58" rerouteNo="1" devices="vehroute_34 tripinfo_34 emissions_34" vType="vecType" speedFactor="0.99" vaporized="">
        <emissions CO_abs="96966.738341" CO2_abs="2483729.349306" HC_abs="499.221171" PMx_abs="49.845404" NOx_abs="1057.542585" fuel_abs="792225.880802" electricity_abs="0"/>
    </tripinfo>
    <tripinfo id="5" depart="18000.00" departLane="-23883760_0" departPos="5.10" departSpeed="0.00" departDelay="0.00" arrival="19025.00" arrivalLane="-23883760_0" arrivalPos="242.29" arrivalSpeed="8.91" duration="1025.00" routeLength="5984.65" waitingTime="269.00" waitingCount="9" stopTime="20.00" timeLoss="360.85" rerouteNo="1" devices="vehroute_5 tripinfo_5 emissions_5" vType="vecType" speedFactor="0.83" vaporized="">
        <emissions CO_abs="73267.668657" CO2_abs="2234356.161620" HC_abs="384.815187" PMx_abs="39.227829" NOx_abs="919.550465" fuel_abs="712681.364985" electricity_abs="0"/>
    </tripinfo>
    <tripinfo id="22" depart="18000.00" departLane="27398045#1_0" departPos="5.10" departSpeed="0.00" departDelay="0.00" arrival="19025.00" arrivalLane="27398045#1_0" arrivalPos="122.17" arrivalSpeed="10.12" duration="1025.00" routeLength="6484.53" waitingTime="305.00" waitingCount="10" stopTime="20.00" timeLoss="411.94" rerouteNo="2" devices="vehroute_22 tripinfo_22 emissions_22" vType="vecType" speedFactor="0.97" vaporized="">
        <emissions CO_abs="76994.567405" CO2_abs="2473887.762580" HC_abs="407.614407" PMx_abs="44.544460" NOx_abs="1019.800811" fuel_abs="789080.118797" electricity_abs="0"/>
    </tripinfo>
    <tripinfo id="23" depart="18000.00" departLane="133733582#2_0" departPos="5.10" departSpeed="0.00" departDelay="0.00" arrival="19039.00" arrivalLane="133733582#2_0" arrivalPos="149.99" arrivalSpeed="9.58" duration="1039.00" routeLength="6926.78" waitingTime="284.00" waitingCount="10" stopTime="20.00" timeLoss="384.91" rerouteNo="1" devices="vehroute_23 tripinfo_23 emissions_23" vType="vecType" speedFactor="0.89" vaporized="">
        <emissions CO_abs="75171.160349" CO2_abs="2489902.244475" HC_abs="399.145561" PMx_abs="44.268038" NOx_abs="1017.445247" fuel_abs="794187.489588" electricity_abs="0"/>
    </tripinfo>
    <tripinfo id="17" depart="18003.00" departLane="224384035#0_0" departPos="5.10" departSpeed="0.00" departDelay="3.00" arrival="19064.00" arrivalLane="224384035#0_0" arrivalPos="123.84" arrivalSpeed="10.18" duration="1061.00" routeLength="7142.89" waitingTime="239.00" waitingCount="14" stopTime="20.00" timeLoss="368.40" rerouteNo="1" devices="vehroute_17 tripinfo_17 emissions_17" vType="vecType" speedFactor="0.94" vaporized="">
        <emissions CO_abs="71444.697404" CO2_abs="2498902.513727" HC_abs="382.762991" PMx_abs="43.451276" NOx_abs="1021.725889" fuel_abs="797056.500963" electricity_abs="0"/>
    </tripinfo>
    <tripinfo id="7" depart="18000.00" departLane="224384035#0_0" departPos="5.10" departSpeed="0.00" departDelay="0.00" arrival="19076.00" arrivalLane="224384035#0_0" arrivalPos="123.84" arrivalSpeed="9.54" duration="1076.00" routeLength="6571.31" waitingTime="283.00" waitingCount="12" stopTime="20.00" timeLoss="396.46" rerouteNo="2" devices="vehroute_7 tripinfo_7 emissions_7" vType="vecType" speedFactor="0.89" vaporized="">
        <emissions CO_abs="77578.709501" CO2_abs="2482565.309975" HC_abs="410.307286" PMx_abs="43.988644" NOx_abs="1022.600653" fuel_abs="791848.635509" electricity_abs="0"/>
    </tripinfo>
    <tripinfo id="44" depart="18060.00" departLane="8915254_0" departPos="5.10" departSpeed="0.00" departDelay="0.00" arrival="19102.00" arrivalLane="8915254_0" arrivalPos="317.12" arrivalSpeed="22.39" duration="1042.00" routeLength="7777.74" waitingTime="310.00" waitingCount="12" stopTime="20.00" timeLoss="435.89" rerouteNo="1" devices="vehroute_44 tripinfo_44 emissions_44" vType="vecType" speedFactor="1.04" vaporized="">
        <emissions CO_abs="82546.006813" CO2_abs="2912613.395053" HC_abs="443.588014" PMx_abs="55.140219" NOx_abs="1204.032983" fuel_abs="929010.466826" electricity_abs="0"/>
    </tripinfo>
    <tripinfo id="14" depart="18000.00" departLane="8916767#0_0" departPos="5.10" departSpeed="0.00" departDelay="0.00" arrival="19107.00" arrivalLane="8916767#0_0" arrivalPos="129.66" arrivalSpeed="10.91" duration="1107.00" routeLength="7452.94" waitingTime="281.00" waitingCount="14" stopTime="20.00" timeLoss="413.62" rerouteNo="1" devices="vehroute_14 tripinfo_14 emissions_14" vType="vecType" speedFactor="0.99" vaporized="">
        <emissions CO_abs="78243.758465" CO2_abs="2708542.638282" HC_abs="418.830195" PMx_abs="48.065590" NOx_abs="1111.632300" fuel_abs="863923.490432" electricity_abs="0"/>
    </tripinfo>
    <tripinfo id="43" depart="18012.00" departLane="123867455_0" departPos="5.10" departSpeed="0.00" departDelay="12.00" arrival="19117.00" arrivalLane="123867455_0" arrivalPos="904.85" arrivalSpeed="29.94" duration="1105.00" routeLength="8632.43" waitingTime="326.00" waitingCount="14" stopTime="20.00" timeLoss="481.98" rerouteNo="9" devices="vehroute_43 tripinfo_43 emissions_43" vType="vecType" speedFactor="1.04" vaporized="">
        <emissions CO_abs="92507.136854" CO2_abs="3301898.340508" HC_abs="498.165271" PMx_abs="64.163373" NOx_abs="1361.710630" fuel_abs="1053175.608017" electricity_abs="0"/>
    </tripinfo>
    <tripinfo id="11" depart="18003.00" departLane="225806031#0_0" departPos="5.10" departSpeed="0.00" departDelay="3.00" arrival="19166.00" arrivalLane="225806031#0_0" arrivalPos="142.16" arrivalSpeed="10.44" duration="1163.00" routeLength="6601.41" waitingTime="430.00" waitingCount="18" stopTime="20.00" timeLoss="569.26" rerouteNo="1" devices="vehroute_11 tripinfo_11 emissions_11" vType="vecType" speedFactor="1.03" vaporized="">
        <emissions CO_abs="100418.278621" CO2_abs="2908059.419424" HC_abs="524.447245" PMx_abs="55.144479" NOx_abs="1215.032537" fuel_abs="927568.357837" electricity_abs="0"/>
    </tripinfo>
    <tripinfo id="48" depart="18060.00" departLane="86303763#0_0" departPos="5.10" departSpeed="0.00" departDelay="0.00" arrival="19203.00" arrivalLane="86303763#0_0" arrivalPos="139.93" arrivalSpeed="8.88" duration="1143.00" routeLength="5756.09" waitingTime="422.00" waitingCount="15" stopTime="20.00" timeLoss="537.27" rerouteNo="1" devices="vehroute_48 tripinfo_48 emissions_48" vType="vecType" speedFactor="0.88" vaporized="">
        <emissions CO_abs="99437.411206" CO2_abs="2674327.360919" HC_abs="514.506479" PMx_abs="51.005395" NOx_abs="1125.164522" fuel_abs="853019.757497" electricity_abs="0"/>
    </tripinfo>
    <tripinfo id="8" depart="18003.00" departLane="31129765_0" departPos="5.10" departSpeed="0.00" departDelay="3.00" arrival="19204.00" arrivalLane="31129765_0" arrivalPos="639.51" arrivalSpeed="20.74" duration="1201.00" routeLength="8781.92" waitingTime="396.00" waitingCount="17" stopTime="20.00" timeLoss="539.17" rerouteNo="7" devices="vehroute_8 tripinfo_8 emissions_8" vType="vecType" speedFactor="0.94" vaporized="">
        <emissions CO_abs="103283.391911" CO2_abs="3367034.331862" HC_abs="548.207633" PMx_abs="65.744021" NOx_abs="1393.132457" fuel_abs="1073956.475506" electricity_abs="0"/>
    </tripinfo>
    <tripinfo id="4" depart="18003.00" departLane="142972028#1_0" departPos="5.10" departSpeed="0.00" departDelay="3.00" arrival="19207.00" arrivalLane="142972028#1_0" arrivalPos="161.20" arrivalSpeed="10.84" duration="1204.00" routeLength="8386.04" waitingTime="354.00" waitingCount="17" stopTime="20.00" timeLoss="513.41" rerouteNo="5" devices="vehroute_4 tripinfo_4 emissions_4" vType="vecType" speedFactor="1.03" vaporized="">
        <emissions CO_abs="94851.726922" CO2_abs="3226965.429913" HC_abs="506.529898" PMx_abs="60.110745" NOx_abs="1331.453265" fuel_abs="1029279.505433" electricity_abs="0"/>
    </tripinfo>
    <tripinfo id="35" depart="18000.00" departLane="191296172#0_0" departPos="5.10" departSpeed="0.00" departDelay="0.00" arrival="19213.00" arrivalLane="191296172#0_1" arrivalPos="157.44" arrivalSpeed="10.79" duration="1213.00" routeLength="8948.87" waitingTime="332.00" waitingCount="11" stopTime="20.00" timeLoss="462.19" rerouteNo="3" devices="vehroute_35 tripinfo_35 emissions_35" vType="vecType" speedFactor="1.02" vaporized="">
        <emissions CO_abs="88185.813684" CO2_abs="3143731.028672" HC_abs="474.420722" PMx_abs="57.257479" NOx_abs="1289.023291" fuel_abs="1002729.697959" electricity_abs="0"/>
    </tripinfo>
    <tripinfo id="38" depart="18006.00" departLane="142972028#1_0" departPos="5.10" departSpeed="0.00" departDelay="6.00" arrival="19218.00" arrivalLane="142972028#1_0" arrivalPos="161.20" arrivalSpeed="11.35" duration="1212.00" routeLength="7387.49" waitingTime="421.00" waitingCount="13" stopTime="20.00" timeLoss="561.52" rerouteNo="5" devices="vehroute_38 tripinfo_38 emissions_38" vType="vecType" speedFactor="1.10" vaporized="">
        <emissions CO_abs="100055.118934" CO2_abs="3029149.802386" HC_abs="524.879406" PMx_abs="56.931855" NOx_abs="1258.083025" fuel_abs="966189.876068" electricity_abs="0"/>
    </tripinfo>
    <tripinfo id="19" depart="18000.00" departLane="254396707#6_0" departPos="5.10" departSpeed="0.00" departDelay="0.00" arrival="19273.00" arrivalLane="254396707#6_0" arrivalPos="139.12" arrivalSpeed="11.86" duration="1273.00" routeLength="6100.25" waitingTime="631.00" waitingCount="25" stopTime="20.00" timeLoss="784.97" rerouteNo="1" devices="vehroute_19 tripinfo_19 emissions_19" vType="vecType" speedFactor="1.16" vaporized="">
        <emissions CO_abs="134235.917932" CO2_abs="3468372.877852" HC_abs="690.534452" PMx_abs="71.481839" NOx_abs="1483.192878" fuel_abs="1106291.295534" electricity_abs="0"/>
    </tripinfo>
    <tripinfo id="18" depart="18000.00" departLane="8916792_0" departPos="5.10" departSpeed="0.00" departDelay="0.00" arrival="19358.00" arrivalLane="8916792_0" arrivalPos="615.11" arrivalSpeed="9.26" duration="1358.00" routeLength="8097.88" waitingTime="445.00" waitingCount="15" stopTime="20.00" timeLoss="563.74" rerouteNo="3" devices="vehroute_18 tripinfo_18 emissions_18" vType="vecType" speedFactor="0.94" vaporized="">
        <emissions CO_abs="104573.676335" CO2_abs="3121692.872787" HC_abs="547.895552" PMx_abs="55.745792" NOx_abs="1284.598154" fuel_abs="995711.536009" electricity_abs="0"/>
    </tripinfo>