<?xml version="1.0" encoding="UTF-8"?>

<!-- generated on 2022-12-14 13:15:55 by Eclipse SUMO sumo Version 1.14.1
<configuration xmlns:xsi="http://www.w3.org/2001/XMLSchema-instance" xsi:noNamespaceSchemaLocation="http://sumo.dlr.de/xsd/sumoConfiguration.xsd">

    <input>
        <net-file value="./strategia1_config/../san_francisco.net.xml"/>
        <route-files value="./strategia1_config/../san_francisco.rou.xml"/>
        <additional-files value="./strategia1_config/../san_francisco.poly.xml,./strategia1_config/../parking_capacity_100%25/off_parking_100%25.add.xml,./strategia1_config/../parking_capacity_100%25/on_parking_100%25.add.xml"/>
    </input>

    <output>
        <emission-output value="./strategia1_config/../output/strategia1/100%25/emissions.xml"/>
        <tripinfo-output value="./strategia1_config/../output/strategia1/100%25/tripinfo.xml"/>
        <vehroute-output value="./strategia1_config/../output/strategia1/100%25/vehroute.xml"/>
        <stop-output value="./strategia1_config/../output/strategia1/100%25/stops.xml"/>
        <collision-output value="./strategia1_config/../output/strategia1/100%25/collision.xml"/>
        <statistic-output value="./strategia1_config/../output/strategia1/100%25/statistic.xml"/>
    </output>

    <time>
        <step-length value="1"/>
    </time>

    <processing>
        <ignore-route-errors value="false"/>
        <time-to-teleport value="-1"/>
    </processing>

    <report>
        <verbose value="true"/>
        <xml-validation value="never"/>
    </report>

    <traci_server>
        <remote-port value="50740"/>
    </traci_server>

    <gui_only>
        <gui-settings-file value="./strategia1_config/../gui-settings.cfg"/>
        <start value="true"/>
    </gui_only>

</configuration>
-->

<tripinfos xmlns:xsi="http://www.w3.org/2001/XMLSchema-instance" xsi:noNamespaceSchemaLocation="http://sumo.dlr.de/xsd/tripinfo_file.xsd">
    <tripinfo id="30" depart="18000.00" departLane="-91181760#0_0" departPos="5.10" departSpeed="0.00" departDelay="0.00" arrival="18341.00" arrivalLane="-91181760#0_0" arrivalPos="79.70" arrivalSpeed="12.69" duration="341.00" routeLength="3660.42" waitingTime="1.00" waitingCount="1" stopTime="20.00" timeLoss="42.42" rerouteNo="1" devices="vehroute_30 tripinfo_30 emissions_30" vType="vecType" speedFactor="1.18" vaporized="">
        <emissions CO_abs="11915.634598" CO2_abs="935692.008536" HC_abs="75.320575" PMx_abs="14.996337" NOx_abs="369.561790" fuel_abs="298443.072816" electricity_abs="0"/>
    </tripinfo>
    <tripinfo id="1" depart="18000.00" departLane="31129765_0" departPos="5.10" departSpeed="0.00" departDelay="0.00" arrival="18353.00" arrivalLane="31129765_0" arrivalPos="639.51" arrivalSpeed="20.46" duration="353.00" routeLength="4341.32" waitingTime="21.00" waitingCount="2" stopTime="20.00" timeLoss="64.92" rerouteNo="1" devices="vehroute_1 tripinfo_1 emissions_1" vType="vecType" speedFactor="0.94" vaporized="">
        <emissions CO_abs="18406.467807" CO2_abs="1157261.398872" HC_abs="110.101103" PMx_abs="20.939245" NOx_abs="455.678696" fuel_abs="369114.266258" electricity_abs="0"/>
    </tripinfo>
    <tripinfo id="45" depart="18060.00" departLane="31129765_0" departPos="5.10" departSpeed="0.00" departDelay="0.00" arrival="18382.00" arrivalLane="31129765_0" arrivalPos="639.51" arrivalSpeed="23.54" duration="322.00" routeLength="4234.28" waitingTime="40.00" waitingCount="1" stopTime="20.00" timeLoss="79.07" rerouteNo="1" devices="vehroute_45 tripinfo_45 emissions_45" vType="vecType" speedFactor="1.09" vaporized="">
        <emissions CO_abs="22929.989571" CO2_abs="1275016.013972" HC_abs="134.526785" PMx_abs="25.638313" NOx_abs="515.834536" fuel_abs="406671.933215" electricity_abs="0"/>
    </tripinfo>
    <tripinfo id="60" depart="18060.00" departLane="8916792_0" departPos="5.10" departSpeed="0.00" departDelay="0.00" arrival="18488.00" arrivalLane="8916792_0" arrivalPos="615.11" arrivalSpeed="11.34" duration="428.00" routeLength="3743.73" waitingTime="55.00" waitingCount="3" stopTime="20.00" timeLoss="97.97" rerouteNo="1" devices="vehroute_60 tripinfo_60 emissions_60" vType="vecType" speedFactor="1.08" vaporized="">
        <emissions CO_abs="19593.452404" CO2_abs="980345.818786" HC_abs="111.432808" PMx_abs="15.166199" NOx_abs="384.414575" fuel_abs="312690.781554" electricity_abs="0"/>
    </tripinfo>
    <tripinfo id="76" depart="18120.00" departLane="225806031#0_0" departPos="5.10" departSpeed="0.00" departDelay="0.00" arrival="18576.00" arrivalLane="225806031#0_0" arrivalPos="142.16" arrivalSpeed="11.40" duration="456.00" routeLength="3181.76" waitingTime="109.00" waitingCount="5" stopTime="20.00" timeLoss="162.15" rerouteNo="1" devices="vehroute_76 tripinfo_76 emissions_76" vType="vecType" speedFactor="1.03" vaporized="">
        <emissions CO_abs="31224.892471" CO2_abs="1149287.104896" HC_abs="168.712972" PMx_abs="20.339189" NOx_abs="470.369594" fuel_abs="366578.363351" electricity_abs="0"/>
    </tripinfo>
    <tripinfo id="28" depart="18009.00" departLane="90077241_0" departPos="5.10" departSpeed="0.00" departDelay="9.00" arrival="18577.00" arrivalLane="90077241_0" arrivalPos="3225.35" arrivalSpeed="32.54" duration="568.00" routeLength="11899.33" waitingTime="67.00" waitingCount="3" stopTime="20.00" timeLoss="120.54" rerouteNo="3" devices="vehroute_28 tripinfo_28 emissions_28" vType="vecType" speedFactor="1.13" vaporized="">
        <emissions CO_abs="60289.965125" CO2_abs="3096074.368109" HC_abs="352.058298" PMx_abs="71.215301" NOx_abs="1209.050245" fuel_abs="987507.300106" electricity_abs="0"/>
    </tripinfo>
    <tripinfo id="74" depart="18120.00" departLane="144489137#0_0" departPos="5.10" departSpeed="0.00" departDelay="0.00" arrival="18630.00" arrivalLane="144489137#0_0" arrivalPos="135.49" arrivalSpeed="9.76" duration="510.00" routeLength="2705.25" waitingTime="182.00" waitingCount="7" stopTime="20.00" timeLoss="239.82" rerouteNo="6" devices="vehroute_74 tripinfo_74 emissions_74" vType="vecType" speedFactor="0.96" vaporized="">
        <emissions CO_abs="43902.444322" CO2_abs="1248710.286917" HC_abs="228.840950" PMx_abs="24.141001" NOx_abs="526.394166" fuel_abs="398294.358868" electricity_abs="0"/>
    </tripinfo>
    <tripinfo id="49" depart="18063.00" departLane="31129765_0" departPos="5.10" departSpeed="0.00" departDelay="3.00" arrival="18663.00" arrivalLane="31129765_0" arrivalPos="639.51" arrivalSpeed="18.44" duration="600.00" routeLength="12944.78" waitingTime="0.00" waitingCount="0" stopTime="20.00" timeLoss="34.10" rerouteNo="1" devices="vehroute_49 tripinfo_49 emissions_49" vType="vecType" speedFactor="0.85" vaporized="">
        <emissions CO_abs="23988.778262" CO2_abs="2490187.833988" HC_abs="165.308588" PMx_abs="45.692116" NOx_abs="909.610272" fuel_abs="794252.188444" electricity_abs="0"/>
    </tripinfo>
    <tripinfo id="93" depart="18120.00" departLane="-254758121#2_0" departPos="5.10" departSpeed="0.00" departDelay="0.00" arrival="18663.00" arrivalLane="-254758121#2_0" arrivalPos="99.35" arrivalSpeed="9.68" duration="543.00" routeLength="4134.33" waitingTime="60.00" waitingCount="3" stopTime="20.00" timeLoss="121.48" rerouteNo="5" devices="vehroute_93 tripinfo_93 emissions_93" vType="vecType" speedFactor="0.92" vaporized="">
        <emissions CO_abs="27663.198846" CO2_abs="1229922.769338" HC_abs="154.190876" PMx_abs="19.744540" NOx_abs="492.961317" fuel_abs="392296.445113" electricity_abs="0"/>
    </tripinfo>
    <tripinfo id="16" depart="18006.00" departLane="90077241_0" departPos="5.10" departSpeed="0.00" departDelay="6.00" arrival="18688.00" arrivalLane="90077241_0" arrivalPos="3225.35" arrivalSpeed="24.55" duration="682.00" routeLength="11625.26" waitingTime="80.00" waitingCount="3" stopTime="20.00" timeLoss="137.92" rerouteNo="1" devices="vehroute_16 tripinfo_16 emissions_16" vType="vecType" speedFactor="0.88" vaporized="">
        <emissions CO_abs="41435.618222" CO2_abs="2631105.591407" HC_abs="249.519463" PMx_abs="50.802293" NOx_abs="999.706233" fuel_abs="839204.580470" electricity_abs="0"/>
    </tripinfo>
    <tripinfo id="36" depart="18009.00" departLane="123867455_0" departPos="5.10" departSpeed="0.00" departDelay="9.00" arrival="18702.00" arrivalLane="123867455_0" arrivalPos="904.85" arrivalSpeed="28.15" duration="693.00" routeLength="5347.03" waitingTime="260.00" waitingCount="8" stopTime="20.00" timeLoss="340.72" rerouteNo="2" devices="vehroute_36 tripinfo_36 emissions_36" vType="vecType" speedFactor="0.97" vaporized="">
        <emissions CO_abs="66445.575972" CO2_abs="2138272.131767" HC_abs="353.104698" PMx_abs="44.215559" NOx_abs="889.091404" fuel_abs="682026.614477" electricity_abs="0"/>
    </tripinfo>
    <tripinfo id="21" depart="18000.00" departLane="27167762_0" departPos="5.10" departSpeed="0.00" departDelay="0.00" arrival="18710.00" arrivalLane="27167762_0" arrivalPos="139.02" arrivalSpeed="21.18" duration="710.00" routeLength="12026.47" waitingTime="115.00" waitingCount="6" stopTime="0.00" timeLoss="175.07" rerouteNo="8" devices="vehroute_21 tripinfo_21 emissions_21" vType="vecType" speedFactor="1.01" vaporized="">
        <emissions CO_abs="56781.071415" CO2_abs="2994529.949749" HC_abs="331.209043" PMx_abs="62.197565" NOx_abs="1160.725312" fuel_abs="955123.138100" electricity_abs="0"/>
    </tripinfo>
    <tripinfo id="31" depart="18006.00" departLane="123867455_0" departPos="5.10" departSpeed="0.00" departDelay="6.00" arrival="18723.00" arrivalLane="123867455_0" arrivalPos="904.85" arrivalSpeed="32.26" duration="717.00" routeLength="7632.90" waitingTime="132.00" waitingCount="7" stopTime="20.00" timeLoss="232.88" rerouteNo="1" devices="vehroute_31 tripinfo_31 emissions_31" vType="vecType" speedFactor="1.15" vaporized="">
        <emissions CO_abs="50574.893011" CO2_abs="2346002.962095" HC_abs="284.892471" PMx_abs="45.238942" NOx_abs="951.534295" fuel_abs="748274.389726" electricity_abs="0"/>
    </tripinfo>
    <tripinfo id="63" depart="18063.00" departLane="-204967525_0" departPos="5.10" departSpeed="0.00" departDelay="3.00" arrival="18749.00" arrivalLane="-204967525_1" arrivalPos="146.26" arrivalSpeed="9.92" duration="686.00" routeLength="4830.14" waitingTime="132.00" waitingCount="8" stopTime="20.00" timeLoss="227.45" rerouteNo="1" devices="vehroute_63 tripinfo_63 emissions_63" vType="vecType" speedFactor="0.99" vaporized="">
        <emissions CO_abs="42369.345514" CO2_abs="1584532.401230" HC_abs="229.357998" PMx_abs="26.725763" NOx_abs="641.221446" fuel_abs="505405.820700" electricity_abs="0"/>
    </tripinfo>
    <tripinfo id="15" depart="18000.00" departLane="-24310636#2_0" departPos="5.10" departSpeed="0.00" departDelay="0.00" arrival="18755.00" arrivalLane="-24310636#2_1" arrivalPos="108.36" arrivalSpeed="9.62" duration="755.00" routeLength="6010.81" waitingTime="128.00" waitingCount="7" stopTime="20.00" timeLoss="213.83" rerouteNo="1" devices="vehroute_15 tripinfo_15 emissions_15" vType="vecType" speedFactor="0.93" vaporized="">
        <emissions CO_abs="45131.039893" CO2_abs="1851989.338412" HC_abs="247.878321" PMx_abs="31.679183" NOx_abs="745.504165" fuel_abs="590711.483943" electricity_abs="0"/>
    </tripinfo>
    <tripinfo id="20" depart="18000.00" departLane="123867455_0" departPos="5.10" departSpeed="0.00" departDelay="0.00" arrival="18758.00" arrivalLane="123867455_0" arrivalPos="904.85" arrivalSpeed="28.82" duration="758.00" routeLength="6719.97" waitingTime="212.00" waitingCount="7" stopTime="20.00" timeLoss="292.26" rerouteNo="3" devices="vehroute_20 tripinfo_20 emissions_20" vType="vecType" speedFactor="1.02" vaporized="">
        <emissions CO_abs="60584.960245" CO2_abs="2310920.618125" HC_abs="330.117340" PMx_abs="44.654964" NOx_abs="940.447176" fuel_abs="737091.209393" electricity_abs="0"/>
    </tripinfo>
    <tripinfo id="39" depart="18006.00" departLane="31129765_0" departPos="5.10" departSpeed="0.00" departDelay="6.00" arrival="18763.00" arrivalLane="31129765_0" arrivalPos="639.51" arrivalSpeed="19.82" duration="757.00" routeLength="6254.53" waitingTime="245.00" waitingCount="8" stopTime="20.00" timeLoss="321.35" rerouteNo="3" devices="vehroute_39 tripinfo_39 emissions_39" vType="vecType" speedFactor="0.90" vaporized="">
        <emissions CO_abs="63225.874932" CO2_abs="2196381.430276" HC_abs="338.179885" PMx_abs="42.803886" NOx_abs="897.120966" fuel_abs="700560.591390" electricity_abs="0"/>
    </tripinfo>
    <tripinfo id="47" depart="18060.00" departLane="90077241_0" departPos="5.10" departSpeed="0.00" departDelay="0.00" arrival="18770.00" arrivalLane="90077241_0" arrivalPos="3225.35" arrivalSpeed="25.56" duration="710.00" routeLength="12027.49" waitingTime="52.00" waitingCount="2" stopTime="20.00" timeLoss="113.69" rerouteNo="4" devices="vehroute_47 tripinfo_47 emissions_47" vType="vecType" speedFactor="0.90" vaporized="">
        <emissions CO_abs="39992.660366" CO2_abs="2698296.053590" HC_abs="245.153291" PMx_abs="51.775207" NOx_abs="1025.211131" fuel_abs="860634.217293" electricity_abs="0"/>
    </tripinfo>
    <tripinfo id="33" depart="18000.00" departLane="144489137#0_0" departPos="5.10" departSpeed="0.00" departDelay="0.00" arrival="18781.00" arrivalLane="144489137#0_0" arrivalPos="135.49" arrivalSpeed="13.10" duration="781.00" routeLength="3872.00" waitingTime="367.00" waitingCount="14" stopTime="20.00" timeLoss="467.73" rerouteNo="1" devices="vehroute_33 tripinfo_33 emissions_33" vType="vecType" speedFactor="1.17" vaporized="">
        <emissions CO_abs="79102.950078" CO2_abs="2090176.468666" HC_abs="408.206503" PMx_abs="42.797136" NOx_abs="891.695085" fuel_abs="666693.390432" electricity_abs="0"/>
    </tripinfo>
    <tripinfo id="82" depart="18123.00" departLane="-133781749_0" departPos="5.10" departSpeed="0.00" departDelay="3.00" arrival="18783.00" arrivalLane="-133781749_0" arrivalPos="138.68" arrivalSpeed="10.36" duration="660.00" routeLength="5499.56" waitingTime="103.00" waitingCount="9" stopTime="20.00" timeLoss="210.17" rerouteNo="1" devices="vehroute_82 tripinfo_82 emissions_82" vType="vecType" speedFactor="1.02" vaporized="">
        <emissions CO_abs="41991.842294" CO2_abs="1796587.659494" HC_abs="232.852709" PMx_abs="31.773823" NOx_abs="727.075533" fuel_abs="573038.573288" electricity_abs="0"/>
    </tripinfo>
    <tripinfo id="68" depart="18060.00" departLane="27167762_0" departPos="5.10" departSpeed="0.00" departDelay="0.00" arrival="18786.00" arrivalLane="27167762_0" arrivalPos="139.02" arrivalSpeed="22.19" duration="726.00" routeLength="12191.33" waitingTime="125.00" waitingCount="5" stopTime="0.00" timeLoss="193.20" rerouteNo="5" devices="vehroute_68 tripinfo_68 emissions_68" vType="vecType" speedFactor="1.04" vaporized="">
        <emissions CO_abs="61829.402350" CO2_abs="3144997.003353" HC_abs="358.544747" PMx_abs="66.643236" NOx_abs="1223.251810" fuel_abs="1003115.835551" electricity_abs="0"/>
    </tripinfo>
    <tripinfo id="0" depart="18000.00" departLane="84823308_0" departPos="5.10" departSpeed="0.00" departDelay="0.00" arrival="18796.00" arrivalLane="84823308_0" arrivalPos="275.63" arrivalSpeed="11.62" duration="796.00" routeLength="5847.57" waitingTime="195.00" waitingCount="6" stopTime="20.00" timeLoss="282.26" rerouteNo="10" devices="vehroute_0 tripinfo_0 emissions_0" vType="vecType" speedFactor="1.06" vaporized="">
        <emissions CO_abs="52412.560053" CO2_abs="1961025.069325" HC_abs="283.646151" PMx_abs="33.943797" NOx_abs="796.015022" fuel_abs="625491.961736" electricity_abs="0"/>
    </tripinfo>
    <tripinfo id="27" depart="18000.00" departLane="-8916048_0" departPos="5.10" departSpeed="0.00" departDelay="0.00" arrival="18800.00" arrivalLane="-8916048_0" arrivalPos="126.72" arrivalSpeed="9.61" duration="800.00" routeLength="6742.86" waitingTime="109.00" waitingCount="4" stopTime="20.00" timeLoss="202.37" rerouteNo="1" devices="vehroute_27 tripinfo_27 emissions_27" vType="vecType" speedFactor="0.95" vaporized="">
        <emissions CO_abs="43446.865803" CO2_abs="1960368.817675" HC_abs="242.770840" PMx_abs="32.427122" NOx_abs="782.355408" fuel_abs="625278.827036" electricity_abs="0"/>
    </tripinfo>
    <tripinfo id="13" depart="18003.00" departLane="90077241_0" departPos="5.10" departSpeed="0.00" departDelay="3.00" arrival="18837.00" arrivalLane="90077241_0" arrivalPos="3225.35" arrivalSpeed="31.46" duration="834.00" routeLength="12752.38" waitingTime="213.00" waitingCount="7" stopTime="20.00" timeLoss="293.38" rerouteNo="1" devices="vehroute_13 tripinfo_13 emissions_13" vType="vecType" speedFactor="1.12" vaporized="">
        <emissions CO_abs="88296.577657" CO2_abs="3697321.062351" HC_abs="493.262142" PMx_abs="83.142113" NOx_abs="1467.108846" fuel_abs="1179287.570699" electricity_abs="0"/>
    </tripinfo>
    <tripinfo id="2" depart="18000.00" departLane="142972028#1_0" departPos="5.10" departSpeed="0.00" departDelay="0.00" arrival="18848.00" arrivalLane="142972028#1_0" arrivalPos="161.20" arrivalSpeed="11.07" duration="848.00" routeLength="6732.31" waitingTime="170.00" waitingCount="11" stopTime="20.00" timeLoss="289.63" rerouteNo="2" devices="vehroute_2 tripinfo_2 emissions_2" vType="vecType" speedFactor="1.01" vaporized="">
        <emissions CO_abs="56059.527913" CO2_abs="2227000.716740" HC_abs="306.636610" PMx_abs="39.516999" NOx_abs="905.377827" fuel_abs="710325.009894" electricity_abs="0"/>
    </tripinfo>
    <tripinfo id="84" depart="18123.00" departLane="90077241_0" departPos="5.10" departSpeed="0.00" departDelay="3.00" arrival="18850.00" arrivalLane="90077241_0" arrivalPos="3225.35" arrivalSpeed="33.03" duration="727.00" routeLength="12280.95" waitingTime="164.00" waitingCount="5" stopTime="20.00" timeLoss="232.11" rerouteNo="1" devices="vehroute_84 tripinfo_84 emissions_84" vType="vecType" speedFactor="1.15" vaporized="">
        <emissions CO_abs="79689.488920" CO2_abs="3431031.448566" HC_abs="447.990665" PMx_abs="78.791413" NOx_abs="1351.365906" fuel_abs="1094350.802499" electricity_abs="0"/>
    </tripinfo>
    <tripinfo id="24" depart="18003.00" departLane="123867455_0" departPos="5.10" departSpeed="0.00" departDelay="3.00" arrival="18860.00" arrivalLane="123867455_0" arrivalPos="904.85" arrivalSpeed="23.94" duration="857.00" routeLength="6219.34" waitingTime="217.00" waitingCount="10" stopTime="20.00" timeLoss="319.13" rerouteNo="2" devices="vehroute_24 tripinfo_24 emissions_24" vType="vecType" speedFactor="0.83" vaporized="">
        <emissions CO_abs="66337.600687" CO2_abs="2254619.807165" HC_abs="353.868404" PMx_abs="42.706428" NOx_abs="921.607028" fuel_abs="719138.138710" electricity_abs="0"/>
    </tripinfo>
    <tripinfo id="53" depart="18060.00" departLane="-27029200#2_0" departPos="5.10" departSpeed="0.00" departDelay="0.00" arrival="18861.00" arrivalLane="-27029200#2_0" arrivalPos="66.62" arrivalSpeed="11.05" duration="801.00" routeLength="6523.22" waitingTime="200.00" waitingCount="9" stopTime="20.00" timeLoss="299.10" rerouteNo="2" devices="vehroute_53 tripinfo_53 emissions_53" vType="vecType" speedFactor="1.10" vaporized="">
        <emissions CO_abs="57794.524069" CO2_abs="2195561.254947" HC_abs="313.859240" PMx_abs="41.278829" NOx_abs="902.389308" fuel_abs="700296.445037" electricity_abs="0"/>
    </tripinfo>
    <tripinfo id="40" depart="18000.00" departLane="-206679802#4_0" departPos="5.10" departSpeed="0.00" departDelay="0.00" arrival="18862.00" arrivalLane="-206679802#4_0" arrivalPos="292.11" arrivalSpeed="10.23" duration="862.00" routeLength="6247.90" waitingTime="202.00" waitingCount="7" stopTime="20.00" timeLoss="299.05" rerouteNo="7" devices="vehroute_40 tripinfo_40 emissions_40" vType="vecType" speedFactor="1.03" vaporized="">
        <emissions CO_abs="57138.430817" CO2_abs="2129127.066478" HC_abs="309.278666" PMx_abs="37.309016" NOx_abs="868.737635" fuel_abs="679109.609686" electricity_abs="0"/>
    </tripinfo>
    <tripinfo id="64" depart="18060.00" departLane="28319343#2_0" departPos="5.10" departSpeed="0.00" departDelay="0.00" arrival="18872.00" arrivalLane="28319343#2_0" arrivalPos="90.58" arrivalSpeed="9.73" duration="812.00" routeLength="9974.14" waitingTime="217.00" waitingCount="8" stopTime="0.00" timeLoss="285.17" rerouteNo="1" devices="vehroute_64 tripinfo_64 emissions_64" vType="vecType" speedFactor="0.94" vaporized="">
        <emissions CO_abs="65052.682243" CO2_abs="2732687.416733" HC_abs="360.663823" PMx_abs="54.664782" NOx_abs="1080.065947" fuel_abs="871614.811148" electricity_abs="0"/>
    </tripinfo>
    <tripinfo id="73" depart="18120.00" departLane="-204967525_0" departPos="5.10" departSpeed="0.00" departDelay="0.00" arrival="18879.00" arrivalLane="-204967525_1" arrivalPos="146.26" arrivalSpeed="11.78" duration="759.00" routeLength="5090.57" waitingTime="211.00" waitingCount="8" stopTime="20.00" timeLoss="306.77" rerouteNo="1" devices="vehroute_73 tripinfo_73 emissions_73" vType="vecType" speedFactor="1.06" vaporized="">
        <emissions CO_abs="57457.610987" CO2_abs="1982498.206407" HC_abs="307.594724" PMx_abs="36.785068" NOx_abs="823.335178" fuel_abs="632340.903764" electricity_abs="0"/>
    </tripinfo>
    <tripinfo id="79" depart="18120.00" departLane="-24310636#2_0" departPos="5.10" departSpeed="0.00" departDelay="0.00" arrival="18887.00" arrivalLane="-24310636#2_1" arrivalPos="108.36" arrivalSpeed="11.63" duration="767.00" routeLength="6581.41" waitingTime="161.00" waitingCount="6" stopTime="20.00" timeLoss="256.25" rerouteNo="1" devices="vehroute_79 tripinfo_79 emissions_79" vType="vecType" speedFactor="1.09" vaporized="">
        <emissions CO_abs="51265.383847" CO2_abs="2169818.122063" HC_abs="283.562397" PMx_abs="39.406062" NOx_abs="883.207609" fuel_abs="692083.218522" electricity_abs="0"/>
    </tripinfo>
    <tripinfo id="85" depart="18126.00" departLane="90077241_0" departPos="5.10" departSpeed="0.00" departDelay="6.00" arrival="18888.00" arrivalLane="90077241_0" arrivalPos="3225.35" arrivalSpeed="27.20" duration="762.00" routeLength="11984.76" waitingTime="148.00" waitingCount="6" stopTime="20.00" timeLoss="211.86" rerouteNo="1" devices="vehroute_85 tripinfo_85 emissions_85" vType="vecType" speedFactor="0.98" vaporized="">
        <emissions CO_abs="61117.004705" CO2_abs="3037512.053949" HC_abs="351.988516" PMx_abs="63.193197" NOx_abs="1182.680420" fuel_abs="968834.305860" electricity_abs="0"/>
    </tripinfo>
    <tripinfo id="42" depart="18009.00" departLane="31129765_0" departPos="5.10" departSpeed="0.00" departDelay="9.00" arrival="18894.00" arrivalLane="31129765_0" arrivalPos="639.51" arrivalSpeed="24.14" duration="885.00" routeLength="7763.38" waitingTime="283.00" waitingCount="12" stopTime="20.00" timeLoss="396.94" rerouteNo="1" devices="vehroute_42 tripinfo_42 emissions_42" vType="vecType" speedFactor="1.09" vaporized="">
        <emissions CO_abs="79049.480183" CO2_abs="2860980.113797" HC_abs="426.948596" PMx_abs="57.959142" NOx_abs="1181.435681" fuel_abs="912537.725591" electricity_abs="0"/>
    </tripinfo>
    <tripinfo id="29" depart="18000.00" departLane="-35977367#2_0" departPos="5.10" departSpeed="0.00" departDelay="0.00" arrival="18897.00" arrivalLane="-35977367#2_0" arrivalPos="431.73" arrivalSpeed="9.24" duration="897.00" routeLength="6070.29" waitingTime="200.00" waitingCount="7" stopTime="20.00" timeLoss="293.64" rerouteNo="3" devices="vehroute_29 tripinfo_29 emissions_29" vType="vecType" speedFactor="0.93" vaporized="">
        <emissions CO_abs="59559.581960" CO2_abs="2128176.548208" HC_abs="320.193622" PMx_abs="36.739399" NOx_abs="869.117538" fuel_abs="678808.215724" electricity_abs="0"/>
    </tripinfo>
    <tripinfo id="25" depart="18003.00" departLane="-23883761_0" departPos="5.10" departSpeed="0.00" departDelay="3.00" arrival="18905.00" arrivalLane="-23883761_0" arrivalPos="197.88" arrivalSpeed="9.55" duration="902.00" routeLength="5896.49" waitingTime="177.00" waitingCount="11" stopTime="20.00" timeLoss="276.95" rerouteNo="2" devices="vehroute_25 tripinfo_25 emissions_25" vType="vecType" speedFactor="0.87" vaporized="">
        <emissions CO_abs="57104.264276" CO2_abs="1980234.744706" HC_abs="305.377174" PMx_abs="33.380014" NOx_abs="805.200340" fuel_abs="631622.195542" electricity_abs="0"/>
    </tripinfo>
    <tripinfo id="10" depart="18000.00" departLane="90077241_0" departPos="5.10" departSpeed="0.00" departDelay="0.00" arrival="18906.00" arrivalLane="90077241_0" arrivalPos="3225.35" arrivalSpeed="31.62" duration="906.00" routeLength="12917.03" waitingTime="243.00" waitingCount="10" stopTime="20.00" timeLoss="336.69" rerouteNo="5" devices="vehroute_10 tripinfo_10 emissions_10" vType="vecType" speedFactor="1.09" vaporized="">
        <emissions CO_abs="92149.357465" CO2_abs="3803823.757495" HC_abs="512.901022" PMx_abs="84.260027" NOx_abs="1516.543984" fuel_abs="1213258.471677" electricity_abs="0"/>
    </tripinfo>
    <tripinfo id="99" depart="18180.00" departLane="-27029204_0" departPos="5.10" departSpeed="0.00" departDelay="0.00" arrival="18917.00" arrivalLane="-27029204_0" arrivalPos="195.60" arrivalSpeed="11.40" duration="737.00" routeLength="5700.35" waitingTime="213.00" waitingCount="9" stopTime="20.00" timeLoss="302.92" rerouteNo="2" devices="vehroute_99 tripinfo_99 emissions_99" vType="vecType" speedFactor="1.10" vaporized="">
        <emissions CO_abs="57674.167696" CO2_abs="2101017.823437" HC_abs="311.281165" PMx_abs="39.965378" NOx_abs="866.396642" fuel_abs="670141.833556" electricity_abs="0"/>
    </tripinfo>
    <tripinfo id="43" depart="18012.00" departLane="123867455_0" departPos="5.10" departSpeed="0.00" departDelay="12.00" arrival="18956.00" arrivalLane="123867455_0" arrivalPos="904.85" arrivalSpeed="29.43" duration="944.00" routeLength="8280.56" waitingTime="219.00" waitingCount="11" stopTime="20.00" timeLoss="351.71" rerouteNo="2" devices="vehroute_43 tripinfo_43 emissions_43" vType="vecType" speedFactor="1.04" vaporized="">
        <emissions CO_abs="71249.211088" CO2_abs="2821600.232169" HC_abs="390.607683" PMx_abs="54.206981" NOx_abs="1156.006211" fuel_abs="899975.469810" electricity_abs="0"/>
    </tripinfo>
    <tripinfo id="90" depart="18120.00" departLane="-254758120#3_0" departPos="5.10" departSpeed="0.00" departDelay="0.00" arrival="18956.00" arrivalLane="-254758120#3_0" arrivalPos="147.41" arrivalSpeed="10.84" duration="836.00" routeLength="5221.94" waitingTime="271.00" waitingCount="10" stopTime="20.00" timeLoss="356.39" rerouteNo="1" devices="vehroute_90 tripinfo_90 emissions_90" vType="vecType" speedFactor="1.02" vaporized="">
        <emissions CO_abs="64600.853782" CO2_abs="1993859.384466" HC_abs="340.170140" PMx_abs="36.522630" NOx_abs="824.333645" fuel_abs="635969.604381" electricity_abs="0"/>
    </tripinfo>
    <tripinfo id="3" depart="18000.00" departLane="-133781749_0" departPos="5.10" departSpeed="0.00" departDelay="0.00" arrival="18957.00" arrivalLane="-133781749_0" arrivalPos="138.68" arrivalSpeed="11.04" duration="957.00" routeLength="7501.04" waitingTime="238.00" waitingCount="12" stopTime="20.00" timeLoss="368.54" rerouteNo="1" devices="vehroute_3 tripinfo_3 emissions_3" vType="vecType" speedFactor="1.08" vaporized="">
        <emissions CO_abs="69895.911854" CO2_abs="2641884.721290" HC_abs="379.441946" PMx_abs="49.039146" NOx_abs="1085.509999" fuel_abs="842656.486365" electricity_abs="0"/>
    </tripinfo>
    <tripinfo id="75" depart="18120.00" departLane="-254297762#2_0" departPos="5.10" departSpeed="0.00" departDelay="0.00" arrival="18961.00" arrivalLane="-254297762#2_0" arrivalPos="291.17" arrivalSpeed="10.30" duration="841.00" routeLength="5967.18" waitingTime="176.00" waitingCount="11" stopTime="20.00" timeLoss="278.43" rerouteNo="2" devices="vehroute_75 tripinfo_75 emissions_75" vType="vecType" speedFactor="0.98" vaporized="">
        <emissions CO_abs="54615.957496" CO2_abs="2051290.601073" HC_abs="296.042219" PMx_abs="35.564862" NOx_abs="836.831337" fuel_abs="654282.722079" electricity_abs="0"/>
    </tripinfo>
    <tripinfo id="9" depart="18000.00" departLane="23959829#0_0" departPos="5.10" departSpeed="0.00" departDelay="0.00" arrival="18966.00" arrivalLane="23959829#0_0" arrivalPos="45.86" arrivalSpeed="9.22" duration="966.00" routeLength="6745.88" waitingTime="196.00" waitingCount="10" stopTime="20.00" timeLoss="307.21" rerouteNo="6" devices="vehroute_9 tripinfo_9 emissions_9" vType="vecType" speedFactor="0.86" vaporized="">
        <emissions CO_abs="62973.232067" CO2_abs="2271210.382007" HC_abs="338.836524" PMx_abs="39.620467" NOx_abs="925.639971" fuel_abs="724430.004709" electricity_abs="0"/>
    </tripinfo>
    <tripinfo id="56" depart="18066.00" departLane="31129765_0" departPos="5.10" departSpeed="0.00" departDelay="6.00" arrival="18970.00" arrivalLane="31129765_0" arrivalPos="639.51" arrivalSpeed="19.30" duration="904.00" routeLength="13447.31" waitingTime="170.00" waitingCount="5" stopTime="0.00" timeLoss="238.98" rerouteNo="4" devices="vehroute_56 tripinfo_56 emissions_56" vType="vecType" speedFactor="0.90" vaporized="">
        <emissions CO_abs="61349.649889" CO2_abs="3237924.305374" HC_abs="354.403521" PMx_abs="62.433667" NOx_abs="1245.942582" fuel_abs="1032758.156237" electricity_abs="0"/>
    </tripinfo>
    <tripinfo id="41" depart="18003.00" departLane="144489137#0_0" departPos="5.10" departSpeed="0.00" departDelay="3.00" arrival="18974.00" arrivalLane="144489137#0_0" arrivalPos="135.49" arrivalSpeed="9.50" duration="971.00" routeLength="5119.82" waitingTime="365.00" waitingCount="15" stopTime="20.00" timeLoss="475.54" rerouteNo="1" devices="vehroute_41 tripinfo_41 emissions_41" vType="vecType" speedFactor="0.96" vaporized="">
        <emissions CO_abs="84814.727653" CO2_abs="2334255.747823" HC_abs="440.159379" PMx_abs="44.875086" NOx_abs="981.856136" fuel_abs="744546.986125" electricity_abs="0"/>
    </tripinfo>