<?xml version="1.0" encoding="UTF-8"?>

<!-- generated on 2022-12-20 20:30:53 by Eclipse SUMO sumo Version 1.14.1
<configuration xmlns:xsi="http://www.w3.org/2001/XMLSchema-instance" xsi:noNamespaceSchemaLocation="http://sumo.dlr.de/xsd/sumoConfiguration.xsd">

    <input>
        <net-file value="./strategia1_config/../san_francisco.net.xml"/>
        <route-files value="./strategia1_config/../san_francisco.rou.xml"/>
        <additional-files value="./strategia1_config/../san_francisco.poly.xml,./strategia1_config/../parking_capacity_100%25/off_parking_100%25.add.xml,./strategia1_config/../parking_capacity_100%25/on_parking_100%25.add.xml"/>
    </input>

    <output>
        <emission-output value="./strategia1_config/../output/strategia1/100%25/emissions.xml"/>
        <tripinfo-output value="./strategia1_config/../output/strategia1/100%25/tripinfo.xml"/>
        <vehroute-output value="./strategia1_config/../output/strategia1/100%25/vehroute.xml"/>
        <stop-output value="./strategia1_config/../output/strategia1/100%25/stops.xml"/>
        <collision-output value="./strategia1_config/../output/strategia1/100%25/collision.xml"/>
        <statistic-output value="./strategia1_config/../output/strategia1/100%25/statistic.xml"/>
    </output>

    <time>
        <step-length value="1"/>
    </time>

    <processing>
        <ignore-route-errors value="false"/>
        <time-to-teleport value="-1"/>
    </processing>

    <report>
        <verbose value="true"/>
        <xml-validation value="never"/>
    </report>

    <traci_server>
        <remote-port value="57657"/>
    </traci_server>

    <gui_only>
        <gui-settings-file value="./strategia1_config/../gui-settings.cfg"/>
        <start value="true"/>
    </gui_only>

</configuration>
-->

<tripinfos xmlns:xsi="http://www.w3.org/2001/XMLSchema-instance" xsi:noNamespaceSchemaLocation="http://sumo.dlr.de/xsd/tripinfo_file.xsd">
    <tripinfo id="30" depart="18000.00" departLane="-91181760#0_0" departPos="5.10" departSpeed="0.00" departDelay="0.00" arrival="18335.00" arrivalLane="-91181760#0_0" arrivalPos="79.70" arrivalSpeed="12.17" duration="335.00" routeLength="3660.42" waitingTime="5.00" waitingCount="2" stopTime="3.00" timeLoss="53.67" rerouteNo="1" devices="vehroute_30 tripinfo_30 emissions_30" vType="vecType" speedFactor="1.18" vaporized="">
        <emissions CO_abs="13561.072375" CO2_abs="1001294.622536" HC_abs="84.164385" PMx_abs="16.058651" NOx_abs="395.280106" fuel_abs="319367.827478" electricity_abs="0"/>
    </tripinfo>
    <tripinfo id="1" depart="18000.00" departLane="31129765_0" departPos="5.10" departSpeed="0.00" departDelay="0.00" arrival="18354.00" arrivalLane="31129765_0" arrivalPos="639.51" arrivalSpeed="20.23" duration="354.00" routeLength="4341.32" waitingTime="36.00" waitingCount="2" stopTime="3.00" timeLoss="82.36" rerouteNo="1" devices="vehroute_1 tripinfo_1 emissions_1" vType="vecType" speedFactor="0.94" vaporized="">
        <emissions CO_abs="21309.149557" CO2_abs="1208611.539217" HC_abs="124.628488" PMx_abs="22.203523" NOx_abs="480.051159" fuel_abs="385493.471845" electricity_abs="0"/>
    </tripinfo>
    <tripinfo id="45" depart="18060.00" departLane="31129765_0" departPos="5.10" departSpeed="0.00" departDelay="0.00" arrival="18368.00" arrivalLane="31129765_0" arrivalPos="639.51" arrivalSpeed="23.59" duration="308.00" routeLength="4234.28" waitingTime="40.00" waitingCount="1" stopTime="3.00" timeLoss="81.40" rerouteNo="1" devices="vehroute_45 tripinfo_45 emissions_45" vType="vecType" speedFactor="1.09" vaporized="">
        <emissions CO_abs="22961.788818" CO2_abs="1291048.731268" HC_abs="134.998803" PMx_abs="25.679931" NOx_abs="521.062771" fuel_abs="411785.769970" electricity_abs="0"/>
    </tripinfo>
    <tripinfo id="60" depart="18060.00" departLane="8916792_0" departPos="5.10" departSpeed="0.00" departDelay="0.00" arrival="18488.00" arrivalLane="8916792_0" arrivalPos="615.11" arrivalSpeed="11.54" duration="428.00" routeLength="3743.73" waitingTime="72.00" waitingCount="3" stopTime="3.00" timeLoss="114.76" rerouteNo="1" devices="vehroute_60 tripinfo_60 emissions_60" vType="vecType" speedFactor="1.08" vaporized="">
        <emissions CO_abs="22533.048884" CO2_abs="1027019.026630" HC_abs="125.912054" PMx_abs="16.511707" NOx_abs="406.988462" fuel_abs="327578.192429" electricity_abs="0"/>
    </tripinfo>
    <tripinfo id="21" depart="18000.00" departLane="27167762_0" departPos="5.10" departSpeed="0.00" departDelay="0.00" arrival="18532.00" arrivalLane="27167762_0" arrivalPos="139.02" arrivalSpeed="21.39" duration="532.00" routeLength="5201.43" waitingTime="112.00" waitingCount="5" stopTime="3.00" timeLoss="182.87" rerouteNo="1" devices="vehroute_21 tripinfo_21 emissions_21" vType="vecType" speedFactor="1.01" vaporized="">
        <emissions CO_abs="40629.613916" CO2_abs="1742915.071264" HC_abs="226.138028" PMx_abs="33.524534" NOx_abs="712.372333" fuel_abs="555916.888255" electricity_abs="0"/>
    </tripinfo>
    <tripinfo id="74" depart="18120.00" departLane="144489137#0_0" departPos="5.10" departSpeed="0.00" departDelay="0.00" arrival="18540.00" arrivalLane="144489137#0_0" arrivalPos="135.49" arrivalSpeed="10.62" duration="420.00" routeLength="2495.69" waitingTime="134.00" waitingCount="6" stopTime="3.00" timeLoss="186.08" rerouteNo="4" devices="vehroute_74 tripinfo_74 emissions_74" vType="vecType" speedFactor="0.96" vaporized="">
        <emissions CO_abs="34372.568449" CO2_abs="1044860.453542" HC_abs="180.724222" PMx_abs="19.860198" NOx_abs="438.292590" fuel_abs="333272.361602" electricity_abs="0"/>
    </tripinfo>
    <tripinfo id="28" depart="18009.00" departLane="90077241_0" departPos="5.10" departSpeed="0.00" departDelay="9.00" arrival="18570.00" arrivalLane="90077241_0" arrivalPos="3225.35" arrivalSpeed="32.56" duration="561.00" routeLength="11976.91" waitingTime="66.00" waitingCount="2" stopTime="3.00" timeLoss="123.70" rerouteNo="2" devices="vehroute_28 tripinfo_28 emissions_28" vType="vecType" speedFactor="1.13" vaporized="">
        <emissions CO_abs="60855.231642" CO2_abs="3117361.588417" HC_abs="355.145024" PMx_abs="71.786967" NOx_abs="1220.934834" fuel_abs="994296.765202" electricity_abs="0"/>
    </tripinfo>
    <tripinfo id="76" depart="18120.00" departLane="225806031#0_0" departPos="5.10" departSpeed="0.00" departDelay="0.00" arrival="18575.00" arrivalLane="225806031#0_0" arrivalPos="142.16" arrivalSpeed="11.21" duration="455.00" routeLength="3181.76" waitingTime="123.00" waitingCount="5" stopTime="3.00" timeLoss="177.85" rerouteNo="1" devices="vehroute_76 tripinfo_76 emissions_76" vType="vecType" speedFactor="1.03" vaporized="">
        <emissions CO_abs="33843.052013" CO2_abs="1181689.244577" HC_abs="181.438876" PMx_abs="21.556806" NOx_abs="488.279216" fuel_abs="376913.713251" electricity_abs="0"/>
    </tripinfo>
    <tripinfo id="93" depart="18120.00" departLane="-254758121#2_0" departPos="5.10" departSpeed="0.00" departDelay="0.00" arrival="18581.00" arrivalLane="-254758121#2_0" arrivalPos="99.35" arrivalSpeed="9.37" duration="461.00" routeLength="3841.81" waitingTime="34.00" waitingCount="1" stopTime="3.00" timeLoss="84.57" rerouteNo="3" devices="vehroute_93 tripinfo_93 emissions_93" vType="vecType" speedFactor="0.92" vaporized="">
        <emissions CO_abs="20878.310331" CO2_abs="1048621.564669" HC_abs="119.052893" PMx_abs="15.960069" NOx_abs="414.355428" fuel_abs="334467.868115" electricity_abs="0"/>
    </tripinfo>
    <tripinfo id="10" depart="18000.00" departLane="90077241_0" departPos="5.10" departSpeed="0.00" departDelay="0.00" arrival="18639.00" arrivalLane="90077241_0" arrivalPos="3225.35" arrivalSpeed="31.41" duration="639.00" routeLength="11810.95" waitingTime="101.00" waitingCount="4" stopTime="3.00" timeLoss="177.47" rerouteNo="1" devices="vehroute_10 tripinfo_10 emissions_10" vType="vecType" speedFactor="1.09" vaporized="">
        <emissions CO_abs="63859.904719" CO2_abs="3139354.241165" HC_abs="368.840533" PMx_abs="69.931276" NOx_abs="1222.174090" fuel_abs="1001315.159549" electricity_abs="0"/>
    </tripinfo>
    <tripinfo id="49" depart="18063.00" departLane="31129765_0" departPos="5.10" departSpeed="0.00" departDelay="3.00" arrival="18647.00" arrivalLane="31129765_0" arrivalPos="639.51" arrivalSpeed="17.99" duration="584.00" routeLength="12944.78" waitingTime="0.00" waitingCount="0" stopTime="3.00" timeLoss="35.01" rerouteNo="1" devices="vehroute_49 tripinfo_49 emissions_49" vType="vecType" speedFactor="0.85" vaporized="">
        <emissions CO_abs="22635.619606" CO2_abs="2460846.212369" HC_abs="158.541301" PMx_abs="44.680710" NOx_abs="892.392099" fuel_abs="784893.827349" electricity_abs="0"/>
    </tripinfo>
    <tripinfo id="16" depart="18006.00" departLane="90077241_0" departPos="5.10" departSpeed="0.00" departDelay="6.00" arrival="18687.00" arrivalLane="90077241_0" arrivalPos="3225.35" arrivalSpeed="24.26" duration="681.00" routeLength="11625.26" waitingTime="98.00" waitingCount="3" stopTime="3.00" timeLoss="153.70" rerouteNo="1" devices="vehroute_16 tripinfo_16 emissions_16" vType="vecType" speedFactor="0.88" vaporized="">
        <emissions CO_abs="43633.120106" CO2_abs="2666499.742690" HC_abs="259.680700" PMx_abs="51.329187" NOx_abs="1012.309879" fuel_abs="850494.821763" electricity_abs="0"/>
    </tripinfo>
    <tripinfo id="33" depart="18000.00" departLane="144489137#0_0" departPos="5.10" departSpeed="0.00" departDelay="0.00" arrival="18691.00" arrivalLane="144489137#0_0" arrivalPos="135.49" arrivalSpeed="12.79" duration="691.00" routeLength="3872.00" waitingTime="302.00" waitingCount="13" stopTime="3.00" timeLoss="394.75" rerouteNo="1" devices="vehroute_33 tripinfo_33 emissions_33" vType="vecType" speedFactor="1.17" vaporized="">
        <emissions CO_abs="67649.982346" CO2_abs="1899634.637764" HC_abs="351.317503" PMx_abs="37.872258" NOx_abs="802.585950" fuel_abs="605915.705024" electricity_abs="0"/>
    </tripinfo>
    <tripinfo id="36" depart="18009.00" departLane="123867455_0" departPos="5.10" departSpeed="0.00" departDelay="9.00" arrival="18703.00" arrivalLane="123867455_0" arrivalPos="904.85" arrivalSpeed="28.26" duration="694.00" routeLength="5347.03" waitingTime="276.00" waitingCount="8" stopTime="3.00" timeLoss="358.13" rerouteNo="2" devices="vehroute_36 tripinfo_36 emissions_36" vType="vecType" speedFactor="0.97" vaporized="">
        <emissions CO_abs="69619.956676" CO2_abs="2203581.847525" HC_abs="369.198161" PMx_abs="45.767418" NOx_abs="920.136232" fuel_abs="702858.215535" electricity_abs="0"/>
    </tripinfo>
    <tripinfo id="47" depart="18060.00" departLane="90077241_0" departPos="5.10" departSpeed="0.00" departDelay="0.00" arrival="18705.00" arrivalLane="90077241_0" arrivalPos="3225.35" arrivalSpeed="25.13" duration="645.00" routeLength="11565.45" waitingTime="62.00" waitingCount="3" stopTime="3.00" timeLoss="107.10" rerouteNo="1" devices="vehroute_47 tripinfo_47 emissions_47" vType="vecType" speedFactor="0.90" vaporized="">
        <emissions CO_abs="38978.263543" CO2_abs="2556749.221138" HC_abs="237.240715" PMx_abs="49.633078" NOx_abs="970.148759" fuel_abs="815487.554880" electricity_abs="0"/>
    </tripinfo>
    <tripinfo id="31" depart="18006.00" departLane="123867455_0" departPos="5.10" departSpeed="0.00" departDelay="6.00" arrival="18711.00" arrivalLane="123867455_0" arrivalPos="904.85" arrivalSpeed="32.66" duration="705.00" routeLength="7632.90" waitingTime="131.00" waitingCount="7" stopTime="3.00" timeLoss="236.98" rerouteNo="1" devices="vehroute_31 tripinfo_31 emissions_31" vType="vecType" speedFactor="1.15" vaporized="">
        <emissions CO_abs="50385.053675" CO2_abs="2348650.876290" HC_abs="283.923387" PMx_abs="44.715311" NOx_abs="946.364496" fuel_abs="749119.609553" electricity_abs="0"/>
    </tripinfo>
    <tripinfo id="68" depart="18060.00" departLane="27167762_0" departPos="5.10" departSpeed="0.00" departDelay="0.00" arrival="18716.00" arrivalLane="27167762_0" arrivalPos="139.02" arrivalSpeed="22.94" duration="656.00" routeLength="5366.29" waitingTime="213.00" waitingCount="7" stopTime="3.00" timeLoss="302.38" rerouteNo="1" devices="vehroute_68 tripinfo_68 emissions_68" vType="vecType" speedFactor="1.04" vaporized="">
        <emissions CO_abs="58233.238267" CO2_abs="2069978.984910" HC_abs="313.351236" PMx_abs="41.167818" NOx_abs="859.730264" fuel_abs="660240.841419" electricity_abs="0"/>
    </tripinfo>
    <tripinfo id="13" depart="18003.00" departLane="90077241_0" departPos="5.10" departSpeed="0.00" departDelay="3.00" arrival="18746.00" arrivalLane="90077241_0" arrivalPos="3225.35" arrivalSpeed="32.48" duration="743.00" routeLength="12752.38" waitingTime="144.00" waitingCount="6" stopTime="3.00" timeLoss="219.06" rerouteNo="1" devices="vehroute_13 tripinfo_13 emissions_13" vType="vecType" speedFactor="1.12" vaporized="">
        <emissions CO_abs="76102.399417" CO2_abs="3507304.963251" HC_abs="433.278202" PMx_abs="78.578488" NOx_abs="1382.914017" fuel_abs="1118676.537909" electricity_abs="0"/>
    </tripinfo>
    <tripinfo id="20" depart="18000.00" departLane="123867455_0" departPos="5.10" departSpeed="0.00" departDelay="0.00" arrival="18748.00" arrivalLane="123867455_0" arrivalPos="904.85" arrivalSpeed="28.88" duration="748.00" routeLength="6690.85" waitingTime="215.00" waitingCount="9" stopTime="3.00" timeLoss="309.33" rerouteNo="1" devices="vehroute_20 tripinfo_20 emissions_20" vType="vecType" speedFactor="1.02" vaporized="">
        <emissions CO_abs="63915.188909" CO2_abs="2378760.188202" HC_abs="347.285233" PMx_abs="47.197076" NOx_abs="974.500073" fuel_abs="758729.133508" electricity_abs="0"/>
    </tripinfo>
    <tripinfo id="63" depart="18063.00" departLane="-204967525_0" departPos="5.10" departSpeed="0.00" departDelay="3.00" arrival="18749.00" arrivalLane="-204967525_1" arrivalPos="146.26" arrivalSpeed="10.80" duration="686.00" routeLength="4830.14" waitingTime="152.00" waitingCount="8" stopTime="3.00" timeLoss="244.69" rerouteNo="1" devices="vehroute_63 tripinfo_63 emissions_63" vType="vecType" speedFactor="0.99" vaporized="">
        <emissions CO_abs="45329.814480" CO2_abs="1642808.200134" HC_abs="244.306270" PMx_abs="28.606473" NOx_abs="671.207012" fuel_abs="523993.404492" electricity_abs="0"/>
    </tripinfo>
    <tripinfo id="77" depart="18120.00" departLane="90077241_0" departPos="5.10" departSpeed="0.00" departDelay="0.00" arrival="18750.00" arrivalLane="90077241_0" arrivalPos="3225.35" arrivalSpeed="27.53" duration="630.00" routeLength="11810.95" waitingTime="55.00" waitingCount="3" stopTime="3.00" timeLoss="117.97" rerouteNo="1" devices="vehroute_77 tripinfo_77 emissions_77" vType="vecType" speedFactor="0.98" vaporized="">
        <emissions CO_abs="44853.028825" CO2_abs="2758917.925555" HC_abs="271.231087" PMx_abs="56.793769" NOx_abs="1055.636708" fuel_abs="879969.863260" electricity_abs="0"/>
    </tripinfo>
    <tripinfo id="15" depart="18000.00" departLane="-24310636#2_0" departPos="5.10" departSpeed="0.00" departDelay="0.00" arrival="18754.00" arrivalLane="-24310636#2_1" arrivalPos="108.36" arrivalSpeed="9.68" duration="754.00" routeLength="6010.81" waitingTime="142.00" waitingCount="9" stopTime="4.00" timeLoss="229.85" rerouteNo="1" devices="vehroute_15 tripinfo_15 emissions_15" vType="vecType" speedFactor="0.93" vaporized="">
        <emissions CO_abs="47749.866293" CO2_abs="1895905.012977" HC_abs="260.984635" PMx_abs="33.021166" NOx_abs="767.574212" fuel_abs="604719.150941" electricity_abs="0"/>
    </tripinfo>
    <tripinfo id="39" depart="18006.00" departLane="31129765_0" departPos="5.10" departSpeed="0.00" departDelay="6.00" arrival="18759.00" arrivalLane="31129765_0" arrivalPos="639.51" arrivalSpeed="19.58" duration="753.00" routeLength="6254.53" waitingTime="252.00" waitingCount="8" stopTime="3.00" timeLoss="333.69" rerouteNo="2" devices="vehroute_39 tripinfo_39 emissions_39" vType="vecType" speedFactor="0.90" vaporized="">
        <emissions CO_abs="65507.707258" CO2_abs="2231233.857619" HC_abs="349.493937" PMx_abs="43.618790" NOx_abs="915.423675" fuel_abs="711677.629602" electricity_abs="0"/>
    </tripinfo>
    <tripinfo id="114" depart="18240.00" departLane="-254758120#3_0" departPos="5.10" departSpeed="0.00" departDelay="0.00" arrival="18773.00" arrivalLane="-254758120#3_0" arrivalPos="147.41" arrivalSpeed="11.92" duration="533.00" routeLength="2576.52" waitingTime="262.00" waitingCount="8" stopTime="3.00" timeLoss="319.36" rerouteNo="2" devices="vehroute_114 tripinfo_114 emissions_114" vType="vecType" speedFactor="1.10" vaporized="">
        <emissions CO_abs="55051.507280" CO2_abs="1400647.940811" HC_abs="283.107421" PMx_abs="28.670360" NOx_abs="598.757490" fuel_abs="446759.115430" electricity_abs="0"/>
    </tripinfo>
    <tripinfo id="82" depart="18123.00" departLane="-133781749_0" departPos="5.10" departSpeed="0.00" departDelay="3.00" arrival="18784.00" arrivalLane="-133781749_0" arrivalPos="138.68" arrivalSpeed="11.20" duration="661.00" routeLength="5499.56" waitingTime="119.00" waitingCount="9" stopTime="3.00" timeLoss="228.76" rerouteNo="1" devices="vehroute_82 tripinfo_82 emissions_82" vType="vecType" speedFactor="1.02" vaporized="">
        <emissions CO_abs="44809.774868" CO2_abs="1832907.105702" HC_abs="246.556236" PMx_abs="33.186959" NOx_abs="747.433319" fuel_abs="584623.328336" electricity_abs="0"/>
    </tripinfo>
    <tripinfo id="56" depart="18066.00" departLane="31129765_0" departPos="5.10" departSpeed="0.00" departDelay="6.00" arrival="18794.00" arrivalLane="31129765_0" arrivalPos="639.51" arrivalSpeed="19.71" duration="728.00" routeLength="6622.27" waitingTime="188.00" waitingCount="6" stopTime="5.00" timeLoss="268.62" rerouteNo="1" devices="vehroute_56 tripinfo_56 emissions_56" vType="vecType" speedFactor="0.90" vaporized="">
        <emissions CO_abs="55099.240004" CO2_abs="2142848.264071" HC_abs="300.054346" PMx_abs="40.376326" NOx_abs="867.285555" fuel_abs="683482.871610" electricity_abs="0"/>
    </tripinfo>
    <tripinfo id="0" depart="18000.00" departLane="84823308_0" departPos="5.10" departSpeed="0.00" departDelay="0.00" arrival="18798.00" arrivalLane="84823308_0" arrivalPos="275.63" arrivalSpeed="10.85" duration="798.00" routeLength="5711.39" waitingTime="226.00" waitingCount="7" stopTime="3.00" timeLoss="312.58" rerouteNo="4" devices="vehroute_0 tripinfo_0 emissions_0" vType="vecType" speedFactor="1.06" vaporized="">
        <emissions CO_abs="57859.087564" CO2_abs="2018444.675425" HC_abs="309.835797" PMx_abs="36.086720" NOx_abs="827.174871" fuel_abs="643807.748882" electricity_abs="0"/>
    </tripinfo>
    <tripinfo id="116" depart="18240.00" departLane="48211196#5_0" departPos="5.10" departSpeed="0.00" departDelay="0.00" arrival="18829.00" arrivalLane="-8916792_0" arrivalPos="615.11" arrivalSpeed="12.21" duration="589.00" routeLength="5413.78" waitingTime="106.00" waitingCount="5" stopTime="0.00" timeLoss="177.32" rerouteNo="0" devices="vehroute_116 tripinfo_116 emissions_116" vType="vecType" speedFactor="1.18" vaporized="">
        <emissions CO_abs="34452.848922" CO2_abs="1620165.724555" HC_abs="193.360018" PMx_abs="27.422418" NOx_abs="649.355381" fuel_abs="516766.127267" electricity_abs="0"/>
    </tripinfo>
    <tripinfo id="2" depart="18000.00" departLane="142972028#1_0" departPos="5.10" departSpeed="0.00" departDelay="0.00" arrival="18848.00" arrivalLane="142972028#1_0" arrivalPos="161.20" arrivalSpeed="10.02" duration="848.00" routeLength="6732.31" waitingTime="179.00" waitingCount="10" stopTime="3.00" timeLoss="307.10" rerouteNo="2" devices="vehroute_2 tripinfo_2 emissions_2" vType="vecType" speedFactor="1.01" vaporized="">
        <emissions CO_abs="58440.916495" CO2_abs="2277027.151473" HC_abs="318.928689" PMx_abs="41.103929" NOx_abs="929.909719" fuel_abs="726281.444291" electricity_abs="0"/>
    </tripinfo>
    <tripinfo id="84" depart="18123.00" departLane="90077241_0" departPos="5.10" departSpeed="0.00" departDelay="3.00" arrival="18849.00" arrivalLane="90077241_0" arrivalPos="3225.35" arrivalSpeed="33.07" duration="726.00" routeLength="12280.95" waitingTime="181.00" waitingCount="6" stopTime="3.00" timeLoss="246.78" rerouteNo="1" devices="vehroute_84 tripinfo_84 emissions_84" vType="vecType" speedFactor="1.15" vaporized="">
        <emissions CO_abs="83980.597280" CO2_abs="3550290.604982" HC_abs="470.379409" PMx_abs="81.955119" NOx_abs="1414.338091" fuel_abs="1132388.796961" electricity_abs="0"/>
    </tripinfo>
    <tripinfo id="40" depart="18000.00" departLane="-206679802#4_0" departPos="5.10" departSpeed="0.00" departDelay="0.00" arrival="18866.00" arrivalLane="-206679802#4_0" arrivalPos="292.11" arrivalSpeed="11.40" duration="866.00" routeLength="6247.90" waitingTime="227.00" waitingCount="8" stopTime="3.00" timeLoss="319.93" rerouteNo="7" devices="vehroute_40 tripinfo_40 emissions_40" vType="vecType" speedFactor="1.03" vaporized="">
        <emissions CO_abs="60222.132472" CO2_abs="2185168.400304" HC_abs="324.623285" PMx_abs="38.379362" NOx_abs="892.516399" fuel_abs="696985.491545" electricity_abs="0"/>
    </tripinfo>
    <tripinfo id="64" depart="18060.00" departLane="28319343#2_0" departPos="5.10" departSpeed="0.00" departDelay="0.00" arrival="18871.00" arrivalLane="28319343#2_0" arrivalPos="90.58" arrivalSpeed="9.46" duration="811.00" routeLength="9974.14" waitingTime="216.00" waitingCount="8" stopTime="0.00" timeLoss="284.90" rerouteNo="1" devices="vehroute_64 tripinfo_64 emissions_64" vType="vecType" speedFactor="0.94" vaporized="">
        <emissions CO_abs="65046.829639" CO2_abs="2741436.918518" HC_abs="361.078005" PMx_abs="54.885201" NOx_abs="1084.307318" fuel_abs="874405.383260" electricity_abs="0"/>
    </tripinfo>
    <tripinfo id="9" depart="18000.00" departLane="23959829#0_0" departPos="5.10" departSpeed="0.00" departDelay="0.00" arrival="18877.00" arrivalLane="23959829#0_0" arrivalPos="45.86" arrivalSpeed="9.15" duration="877.00" routeLength="6745.88" waitingTime="133.00" waitingCount="7" stopTime="3.00" timeLoss="234.63" rerouteNo="2" devices="vehroute_9 tripinfo_9 emissions_9" vType="vecType" speedFactor="0.86" vaporized="">
        <emissions CO_abs="51019.501953" CO2_abs="2064438.602127" HC_abs="279.516060" PMx_abs="33.950809" NOx_abs="827.602755" fuel_abs="658476.114687" electricity_abs="0"/>
    </tripinfo>
    <tripinfo id="73" depart="18120.00" departLane="-204967525_0" departPos="5.10" departSpeed="0.00" departDelay="0.00" arrival="18878.00" arrivalLane="-204967525_1" arrivalPos="146.26" arrivalSpeed="11.32" duration="758.00" routeLength="5090.57" waitingTime="238.00" waitingCount="9" stopTime="3.00" timeLoss="323.36" rerouteNo="1" devices="vehroute_73 tripinfo_73 emissions_73" vType="vecType" speedFactor="1.06" vaporized="">
        <emissions CO_abs="60337.833424" CO2_abs="2027991.329513" HC_abs="321.712565" PMx_abs="37.819524" NOx_abs="843.140718" fuel_abs="646852.263001" electricity_abs="0"/>
    </tripinfo>
    <tripinfo id="12" depart="18000.00" departLane="-23883761_0" departPos="5.10" departSpeed="0.00" departDelay="0.00" arrival="18882.00" arrivalLane="-23883761_0" arrivalPos="197.88" arrivalSpeed="10.75" duration="882.00" routeLength="5849.00" waitingTime="276.00" waitingCount="12" stopTime="3.00" timeLoss="378.62" rerouteNo="1" devices="vehroute_12 tripinfo_12 emissions_12" vType="vecType" speedFactor="1.05" vaporized="">
        <emissions CO_abs="68971.914851" CO2_abs="2251140.946597" HC_abs="366.024202" PMx_abs="41.593676" NOx_abs="932.614942" fuel_abs="718030.301633" electricity_abs="0"/>
    </tripinfo>
    <tripinfo id="27" depart="18000.00" departLane="-8916048_0" departPos="5.10" departSpeed="0.00" departDelay="0.00" arrival="18882.00" arrivalLane="-8916048_0" arrivalPos="126.72" arrivalSpeed="9.66" duration="882.00" routeLength="6742.86" waitingTime="198.00" waitingCount="7" stopTime="3.00" timeLoss="301.28" rerouteNo="1" devices="vehroute_27 tripinfo_27 emissions_27" vType="vecType" speedFactor="0.95" vaporized="">
        <emissions CO_abs="60058.696361" CO2_abs="2265657.184827" HC_abs="325.704201" PMx_abs="39.624102" NOx_abs="919.256224" fuel_abs="722657.294828" electricity_abs="0"/>
    </tripinfo>
    <tripinfo id="168" depart="18540.00" departLane="191296172#0_0" departPos="5.10" departSpeed="0.00" departDelay="0.00" arrival="18884.00" arrivalLane="191296172#0_1" arrivalPos="157.44" arrivalSpeed="10.03" duration="344.00" routeLength="2760.55" waitingTime="52.00" waitingCount="1" stopTime="3.00" timeLoss="85.97" rerouteNo="2" devices="vehroute_168 tripinfo_168 emissions_168" vType="vecType" speedFactor="0.97" vaporized="">
        <emissions CO_abs="18938.255763" CO2_abs="820456.815717" HC_abs="105.113997" PMx_abs="13.443455" NOx_abs="329.451688" fuel_abs="261693.192589" electricity_abs="0"/>
    </tripinfo>
    <tripinfo id="85" depart="18126.00" departLane="90077241_0" departPos="5.10" departSpeed="0.00" departDelay="6.00" arrival="18887.00" arrivalLane="90077241_0" arrivalPos="3225.35" arrivalSpeed="27.90" duration="761.00" routeLength="11984.76" waitingTime="165.00" waitingCount="6" stopTime="3.00" timeLoss="228.56" rerouteNo="1" devices="vehroute_85 tripinfo_85 emissions_85" vType="vecType" speedFactor="0.98" vaporized="">
        <emissions CO_abs="63010.061400" CO2_abs="3076325.003520" HC_abs="360.685608" PMx_abs="63.791113" NOx_abs="1192.606059" fuel_abs="981215.002612" electricity_abs="0"/>
    </tripinfo>
    <tripinfo id="42" depart="18009.00" departLane="31129765_0" departPos="5.10" departSpeed="0.00" departDelay="9.00" arrival="18895.00" arrivalLane="31129765_0" arrivalPos="639.51" arrivalSpeed="24.01" duration="886.00" routeLength="7763.38" waitingTime="302.00" waitingCount="12" stopTime="3.00" timeLoss="414.93" rerouteNo="1" devices="vehroute_42 tripinfo_42 emissions_42" vType="vecType" speedFactor="1.09" vaporized="">
        <emissions CO_abs="81467.779237" CO2_abs="2888023.974314" HC_abs="439.000948" PMx_abs="58.997790" NOx_abs="1196.169065" fuel_abs="921164.125895" electricity_abs="0"/>
    </tripinfo>
    <tripinfo id="29" depart="18000.00" departLane="-35977367#2_0" departPos="5.10" departSpeed="0.00" departDelay="0.00" arrival="18897.00" arrivalLane="-35977367#2_0" arrivalPos="431.73" arrivalSpeed="9.23" duration="897.00" routeLength="6070.29" waitingTime="213.00" waitingCount="9" stopTime="3.00" timeLoss="310.89" rerouteNo="3" devices="vehroute_29 tripinfo_29 emissions_29" vType="vecType" speedFactor="0.93" vaporized="">
        <emissions CO_abs="61396.822965" CO2_abs="2138648.587024" HC_abs="328.798050" PMx_abs="37.153237" NOx_abs="874.700768" fuel_abs="682149.140634" electricity_abs="0"/>
    </tripinfo>
    <tripinfo id="79" depart="18120.00" departLane="-24310636#2_0" departPos="5.10" departSpeed="0.00" departDelay="0.00" arrival="18902.00" arrivalLane="-24310636#2_1" arrivalPos="108.36" arrivalSpeed="11.32" duration="782.00" routeLength="6581.41" waitingTime="156.00" waitingCount="8" stopTime="3.00" timeLoss="288.46" rerouteNo="1" devices="vehroute_79 tripinfo_79 emissions_79" vType="vecType" speedFactor="1.09" vaporized="">
        <emissions CO_abs="53630.190130" CO2_abs="2229045.272515" HC_abs="295.766057" PMx_abs="40.878271" NOx_abs="914.991324" fuel_abs="710974.039278" electricity_abs="0"/>
    </tripinfo>
    <tripinfo id="104" depart="18180.00" departLane="8915254_0" departPos="5.10" departSpeed="0.00" departDelay="0.00" arrival="18908.00" arrivalLane="8915254_0" arrivalPos="317.12" arrivalSpeed="19.12" duration="728.00" routeLength="5882.36" waitingTime="157.00" waitingCount="7" stopTime="3.00" timeLoss="231.01" rerouteNo="2" devices="vehroute_104 tripinfo_104 emissions_104" vType="vecType" speedFactor="0.89" vaporized="">
        <emissions CO_abs="48640.613493" CO2_abs="1905390.209400" HC_abs="265.088344" PMx_abs="33.709064" NOx_abs="771.637038" fuel_abs="607744.511273" electricity_abs="0"/>
    </tripinfo>
    <tripinfo id="119" depart="18240.00" departLane="8916767#0_0" departPos="5.10" departSpeed="0.00" departDelay="0.00" arrival="18915.00" arrivalLane="8916767#0_0" arrivalPos="129.66" arrivalSpeed="11.81" duration="675.00" routeLength="5013.92" waitingTime="151.00" waitingCount="8" stopTime="3.00" timeLoss="252.91" rerouteNo="1" devices="vehroute_119 tripinfo_119 emissions_119" vType="vecType" speedFactor="1.07" vaporized="">
        <emissions CO_abs="46124.928900" CO2_abs="1763662.151973" HC_abs="250.391891" PMx_abs="31.107535" NOx_abs="720.564401" fuel_abs="562539.353531" electricity_abs="0"/>
    </tripinfo>
    <tripinfo id="99" depart="18180.00" departLane="-27029204_0" departPos="5.10" departSpeed="0.00" departDelay="0.00" arrival="18917.00" arrivalLane="-27029204_0" arrivalPos="195.60" arrivalSpeed="12.12" duration="737.00" routeLength="5700.35" waitingTime="219.00" waitingCount="9" stopTime="3.00" timeLoss="319.59" rerouteNo="1" devices="vehroute_99 tripinfo_99 emissions_99" vType="vecType" speedFactor="1.10" vaporized="">
        <emissions CO_abs="60502.878885" CO2_abs="2172775.669330" HC_abs="325.668046" PMx_abs="41.815188" NOx_abs="900.814369" fuel_abs="693029.635012" electricity_abs="0"/>
    </tripinfo>
    <tripinfo id="117" depart="18240.00" departLane="27167762_0" departPos="5.10" departSpeed="0.00" departDelay="0.00" arrival="18917.00" arrivalLane="27167762_0" arrivalPos="139.02" arrivalSpeed="21.33" duration="677.00" routeLength="5016.55" waitingTime="251.00" waitingCount="9" stopTime="3.00" timeLoss="340.73" rerouteNo="1" devices="vehroute_117 tripinfo_117 emissions_117" vType="vecType" speedFactor="1.00" vaporized="">
        <emissions CO_abs="65513.920704" CO2_abs="2129642.636413" HC_abs="348.490535" PMx_abs="43.614942" NOx_abs="893.740420" fuel_abs="679273.347240" electricity_abs="0"/>
    </tripinfo>