<?xml version="1.0" encoding="UTF-8"?>

<!-- generated on 2022-12-14 14:07:07 by Eclipse SUMO sumo Version 1.14.1
<configuration xmlns:xsi="http://www.w3.org/2001/XMLSchema-instance" xsi:noNamespaceSchemaLocation="http://sumo.dlr.de/xsd/sumoConfiguration.xsd">

    <input>
        <net-file value="./strategia1_config/../san_francisco.net.xml"/>
        <route-files value="./strategia1_config/../san_francisco.rou.xml"/>
        <additional-files value="./strategia1_config/../san_francisco.poly.xml,./strategia1_config/../parking_capacity_100%25/off_parking_100%25.add.xml,./strategia1_config/../parking_capacity_100%25/on_parking_100%25.add.xml"/>
    </input>

    <output>
        <emission-output value="./strategia1_config/../output/strategia1/100%25/emissions.xml"/>
        <tripinfo-output value="./strategia1_config/../output/strategia1/100%25/tripinfo.xml"/>
        <vehroute-output value="./strategia1_config/../output/strategia1/100%25/vehroute.xml"/>
        <stop-output value="./strategia1_config/../output/strategia1/100%25/stops.xml"/>
        <collision-output value="./strategia1_config/../output/strategia1/100%25/collision.xml"/>
        <statistic-output value="./strategia1_config/../output/strategia1/100%25/statistic.xml"/>
    </output>

    <time>
        <step-length value="1"/>
    </time>

    <processing>
        <ignore-route-errors value="false"/>
        <time-to-teleport value="-1"/>
    </processing>

    <report>
        <verbose value="true"/>
        <xml-validation value="never"/>
    </report>

    <traci_server>
        <remote-port value="51496"/>
    </traci_server>

    <gui_only>
        <gui-settings-file value="./strategia1_config/../gui-settings.cfg"/>
        <start value="true"/>
    </gui_only>

</configuration>
-->

<tripinfos xmlns:xsi="http://www.w3.org/2001/XMLSchema-instance" xsi:noNamespaceSchemaLocation="http://sumo.dlr.de/xsd/tripinfo_file.xsd">
    <tripinfo id="30" depart="18000.00" departLane="-91181760#0_0" departPos="5.10" departSpeed="0.00" departDelay="0.00" arrival="18341.00" arrivalLane="-91181760#0_0" arrivalPos="79.70" arrivalSpeed="12.42" duration="341.00" routeLength="3660.42" waitingTime="1.00" waitingCount="1" stopTime="20.00" timeLoss="42.36" rerouteNo="1" devices="vehroute_30 tripinfo_30 emissions_30" vType="vecType" speedFactor="1.18" vaporized="">
        <emissions CO_abs="11951.293682" CO2_abs="951906.767620" HC_abs="75.990960" PMx_abs="15.118495" NOx_abs="374.731040" fuel_abs="303614.940256" electricity_abs="0"/>
    </tripinfo>
    <tripinfo id="1" depart="18000.00" departLane="31129765_0" departPos="5.10" departSpeed="0.00" departDelay="0.00" arrival="18352.00" arrivalLane="31129765_0" arrivalPos="639.51" arrivalSpeed="20.59" duration="352.00" routeLength="4341.32" waitingTime="22.00" waitingCount="2" stopTime="20.00" timeLoss="64.07" rerouteNo="1" devices="vehroute_1 tripinfo_1 emissions_1" vType="vecType" speedFactor="0.94" vaporized="">
        <emissions CO_abs="18607.174597" CO2_abs="1163022.753150" HC_abs="110.881278" PMx_abs="20.991487" NOx_abs="457.145901" fuel_abs="370951.954561" electricity_abs="0"/>
    </tripinfo>
    <tripinfo id="45" depart="18060.00" departLane="31129765_0" departPos="5.10" departSpeed="0.00" departDelay="0.00" arrival="18384.00" arrivalLane="31129765_0" arrivalPos="639.51" arrivalSpeed="24.31" duration="324.00" routeLength="4234.28" waitingTime="40.00" waitingCount="1" stopTime="20.00" timeLoss="80.93" rerouteNo="1" devices="vehroute_45 tripinfo_45 emissions_45" vType="vecType" speedFactor="1.09" vaporized="">
        <emissions CO_abs="22999.810482" CO2_abs="1293714.489310" HC_abs="135.387893" PMx_abs="25.760907" NOx_abs="520.888160" fuel_abs="412636.077496" electricity_abs="0"/>
    </tripinfo>
    <tripinfo id="60" depart="18060.00" departLane="8916792_0" departPos="5.10" departSpeed="0.00" departDelay="0.00" arrival="18488.00" arrivalLane="8916792_0" arrivalPos="615.11" arrivalSpeed="11.75" duration="428.00" routeLength="3743.73" waitingTime="54.00" waitingCount="3" stopTime="20.00" timeLoss="98.07" rerouteNo="1" devices="vehroute_60 tripinfo_60 emissions_60" vType="vecType" speedFactor="1.08" vaporized="">
        <emissions CO_abs="19792.202792" CO2_abs="987941.503168" HC_abs="112.507185" PMx_abs="15.426058" NOx_abs="388.358248" fuel_abs="315113.367673" electricity_abs="0"/>
    </tripinfo>
    <tripinfo id="74" depart="18120.00" departLane="144489137#0_0" departPos="5.10" departSpeed="0.00" departDelay="0.00" arrival="18540.00" arrivalLane="144489137#0_0" arrivalPos="135.49" arrivalSpeed="10.33" duration="420.00" routeLength="2278.79" waitingTime="142.00" waitingCount="6" stopTime="20.00" timeLoss="189.78" rerouteNo="2" devices="vehroute_74 tripinfo_74 emissions_74" vType="vecType" speedFactor="0.96" vaporized="">
        <emissions CO_abs="34747.869343" CO2_abs="1007106.776622" HC_abs="181.568962" PMx_abs="19.251774" NOx_abs="423.060650" fuel_abs="321231.232329" electricity_abs="0"/>
    </tripinfo>
    <tripinfo id="76" depart="18120.00" departLane="225806031#0_0" departPos="5.10" departSpeed="0.00" departDelay="0.00" arrival="18576.00" arrivalLane="225806031#0_0" arrivalPos="142.16" arrivalSpeed="10.66" duration="456.00" routeLength="3181.76" waitingTime="108.00" waitingCount="4" stopTime="20.00" timeLoss="161.91" rerouteNo="1" devices="vehroute_76 tripinfo_76 emissions_76" vType="vecType" speedFactor="1.03" vaporized="">
        <emissions CO_abs="31320.551752" CO2_abs="1148895.356658" HC_abs="169.061426" PMx_abs="20.380692" NOx_abs="470.554233" fuel_abs="366453.400873" electricity_abs="0"/>
    </tripinfo>
    <tripinfo id="28" depart="18009.00" departLane="90077241_0" departPos="5.10" departSpeed="0.00" departDelay="9.00" arrival="18579.00" arrivalLane="90077241_1" arrivalPos="3225.35" arrivalSpeed="31.72" duration="570.00" routeLength="11899.33" waitingTime="67.00" waitingCount="3" stopTime="20.00" timeLoss="122.09" rerouteNo="3" devices="vehroute_28 tripinfo_28 emissions_28" vType="vecType" speedFactor="1.13" vaporized="">
        <emissions CO_abs="60459.803893" CO2_abs="3095445.442204" HC_abs="352.934522" PMx_abs="71.402370" NOx_abs="1211.309024" fuel_abs="987306.562366" electricity_abs="0"/>
    </tripinfo>
    <tripinfo id="93" depart="18120.00" departLane="-254758121#2_0" departPos="5.10" departSpeed="0.00" departDelay="0.00" arrival="18663.00" arrivalLane="-254758121#2_0" arrivalPos="99.35" arrivalSpeed="9.46" duration="543.00" routeLength="3841.81" waitingTime="96.00" waitingCount="3" stopTime="20.00" timeLoss="149.68" rerouteNo="3" devices="vehroute_93 tripinfo_93 emissions_93" vType="vecType" speedFactor="0.92" vaporized="">
        <emissions CO_abs="32007.899126" CO2_abs="1250494.141140" HC_abs="174.468715" PMx_abs="20.790716" NOx_abs="505.469558" fuel_abs="398859.581600" electricity_abs="0"/>
    </tripinfo>
    <tripinfo id="49" depart="18063.00" departLane="31129765_0" departPos="5.10" departSpeed="0.00" departDelay="3.00" arrival="18664.00" arrivalLane="31129765_0" arrivalPos="639.51" arrivalSpeed="18.80" duration="601.00" routeLength="12944.78" waitingTime="0.00" waitingCount="0" stopTime="20.00" timeLoss="35.13" rerouteNo="1" devices="vehroute_49 tripinfo_49 emissions_49" vType="vecType" speedFactor="0.85" vaporized="">
        <emissions CO_abs="23207.135072" CO2_abs="2477285.521882" HC_abs="161.361002" PMx_abs="45.171793" NOx_abs="901.350713" fuel_abs="790137.018169" electricity_abs="0"/>
    </tripinfo>
    <tripinfo id="114" depart="18240.00" departLane="-254758120#3_0" departPos="5.10" departSpeed="0.00" departDelay="0.00" arrival="18679.00" arrivalLane="-254758120#3_0" arrivalPos="147.41" arrivalSpeed="11.86" duration="439.00" routeLength="2756.34" waitingTime="151.00" waitingCount="6" stopTime="20.00" timeLoss="209.13" rerouteNo="7" devices="vehroute_114 tripinfo_114 emissions_114" vType="vecType" speedFactor="1.18" vaporized="">
        <emissions CO_abs="36608.632829" CO2_abs="1151794.659399" HC_abs="192.698096" PMx_abs="21.869169" NOx_abs="478.589826" fuel_abs="367379.915737" electricity_abs="0"/>
    </tripinfo>
    <tripinfo id="16" depart="18006.00" departLane="90077241_0" departPos="5.10" departSpeed="0.00" departDelay="6.00" arrival="18690.00" arrivalLane="90077241_0" arrivalPos="3225.35" arrivalSpeed="25.43" duration="684.00" routeLength="11625.26" waitingTime="83.00" waitingCount="2" stopTime="20.00" timeLoss="139.95" rerouteNo="1" devices="vehroute_16 tripinfo_16 emissions_16" vType="vecType" speedFactor="0.88" vaporized="">
        <emissions CO_abs="41692.243485" CO2_abs="2638866.457986" HC_abs="250.089140" PMx_abs="50.630483" NOx_abs="999.727507" fuel_abs="841680.197964" electricity_abs="0"/>
    </tripinfo>
    <tripinfo id="36" depart="18009.00" departLane="123867455_0" departPos="5.10" departSpeed="0.00" departDelay="9.00" arrival="18701.00" arrivalLane="123867455_0" arrivalPos="904.85" arrivalSpeed="27.88" duration="692.00" routeLength="5901.75" waitingTime="208.00" waitingCount="7" stopTime="20.00" timeLoss="288.22" rerouteNo="3" devices="vehroute_36 tripinfo_36 emissions_36" vType="vecType" speedFactor="0.97" vaporized="">
        <emissions CO_abs="58272.189685" CO2_abs="2087986.019214" HC_abs="314.533957" PMx_abs="41.494076" NOx_abs="855.632830" fuel_abs="665985.080434" electricity_abs="0"/>
    </tripinfo>
    <tripinfo id="21" depart="18000.00" departLane="27167762_0" departPos="5.10" departSpeed="0.00" departDelay="0.00" arrival="18710.00" arrivalLane="27167762_0" arrivalPos="139.02" arrivalSpeed="22.33" duration="710.00" routeLength="12026.47" waitingTime="114.00" waitingCount="6" stopTime="0.00" timeLoss="176.09" rerouteNo="4" devices="vehroute_21 tripinfo_21 emissions_21" vType="vecType" speedFactor="1.01" vaporized="">
        <emissions CO_abs="58028.864009" CO2_abs="3035623.416205" HC_abs="338.310514" PMx_abs="63.485957" NOx_abs="1184.711234" fuel_abs="968229.636413" electricity_abs="0"/>
    </tripinfo>
    <tripinfo id="126" depart="18240.00" departLane="-133755930#1_0" departPos="5.10" departSpeed="0.00" departDelay="0.00" arrival="18721.00" arrivalLane="8922560#4_1" arrivalPos="6.47" arrivalSpeed="11.92" duration="481.00" routeLength="2788.33" waitingTime="216.00" waitingCount="6" stopTime="0.00" timeLoss="257.98" rerouteNo="3" devices="vehroute_126 tripinfo_126 emissions_126" vType="vecType" speedFactor="1.12" vaporized="">
        <emissions CO_abs="45197.993616" CO2_abs="1260454.314919" HC_abs="234.590252" PMx_abs="24.528344" NOx_abs="528.643735" fuel_abs="402040.916085" electricity_abs="0"/>
    </tripinfo>
    <tripinfo id="63" depart="18063.00" departLane="-204967525_0" departPos="5.10" departSpeed="0.00" departDelay="3.00" arrival="18749.00" arrivalLane="-204967525_1" arrivalPos="146.26" arrivalSpeed="10.23" duration="686.00" routeLength="4830.14" waitingTime="142.00" waitingCount="7" stopTime="20.00" timeLoss="227.99" rerouteNo="1" devices="vehroute_63 tripinfo_63 emissions_63" vType="vecType" speedFactor="0.99" vaporized="">
        <emissions CO_abs="42468.463864" CO2_abs="1571081.512117" HC_abs="229.530077" PMx_abs="26.726535" NOx_abs="637.301917" fuel_abs="501115.517442" electricity_abs="0"/>
    </tripinfo>
    <tripinfo id="15" depart="18000.00" departLane="-24310636#2_0" departPos="5.10" departSpeed="0.00" departDelay="0.00" arrival="18752.00" arrivalLane="-24310636#2_1" arrivalPos="108.36" arrivalSpeed="10.19" duration="752.00" routeLength="6010.81" waitingTime="127.00" waitingCount="6" stopTime="20.00" timeLoss="212.01" rerouteNo="1" devices="vehroute_15 tripinfo_15 emissions_15" vType="vecType" speedFactor="0.93" vaporized="">
        <emissions CO_abs="44571.901462" CO2_abs="1836955.388508" HC_abs="245.018256" PMx_abs="31.390512" NOx_abs="739.424790" fuel_abs="585916.190636" electricity_abs="0"/>
    </tripinfo>
    <tripinfo id="20" depart="18000.00" departLane="123867455_0" departPos="5.10" departSpeed="0.00" departDelay="0.00" arrival="18759.00" arrivalLane="123867455_0" arrivalPos="904.85" arrivalSpeed="28.49" duration="759.00" routeLength="6719.97" waitingTime="212.00" waitingCount="7" stopTime="20.00" timeLoss="293.13" rerouteNo="3" devices="vehroute_20 tripinfo_20 emissions_20" vType="vecType" speedFactor="1.02" vaporized="">
        <emissions CO_abs="60055.586029" CO2_abs="2301441.708029" HC_abs="327.360597" PMx_abs="44.416320" NOx_abs="936.524633" fuel_abs="734067.712510" electricity_abs="0"/>
    </tripinfo>
    <tripinfo id="39" depart="18006.00" departLane="31129765_0" departPos="5.10" departSpeed="0.00" departDelay="6.00" arrival="18764.00" arrivalLane="31129765_0" arrivalPos="639.51" arrivalSpeed="20.09" duration="758.00" routeLength="6254.53" waitingTime="245.00" waitingCount="9" stopTime="20.00" timeLoss="321.53" rerouteNo="3" devices="vehroute_39 tripinfo_39 emissions_39" vType="vecType" speedFactor="0.90" vaporized="">
        <emissions CO_abs="63201.578375" CO2_abs="2202217.068379" HC_abs="338.261913" PMx_abs="42.881957" NOx_abs="899.660897" fuel_abs="702421.748724" electricity_abs="0"/>
    </tripinfo>
    <tripinfo id="47" depart="18060.00" departLane="90077241_0" departPos="5.10" departSpeed="0.00" departDelay="0.00" arrival="18771.00" arrivalLane="90077241_0" arrivalPos="3225.35" arrivalSpeed="25.32" duration="711.00" routeLength="12027.49" waitingTime="55.00" waitingCount="3" stopTime="20.00" timeLoss="113.33" rerouteNo="4" devices="vehroute_47 tripinfo_47 emissions_47" vType="vecType" speedFactor="0.90" vaporized="">
        <emissions CO_abs="40368.842333" CO2_abs="2688260.133841" HC_abs="246.792449" PMx_abs="51.527376" NOx_abs="1019.590927" fuel_abs="857433.685829" electricity_abs="0"/>
    </tripinfo>
    <tripinfo id="33" depart="18000.00" departLane="144489137#0_0" departPos="5.10" departSpeed="0.00" departDelay="0.00" arrival="18780.00" arrivalLane="144489137#0_0" arrivalPos="135.49" arrivalSpeed="12.50" duration="780.00" routeLength="3872.00" waitingTime="364.00" waitingCount="14" stopTime="20.00" timeLoss="466.93" rerouteNo="1" devices="vehroute_33 tripinfo_33 emissions_33" vType="vecType" speedFactor="1.17" vaporized="">
        <emissions CO_abs="78935.057376" CO2_abs="2099272.245114" HC_abs="407.685140" PMx_abs="42.940988" NOx_abs="895.134543" fuel_abs="669594.360010" electricity_abs="0"/>
    </tripinfo>
    <tripinfo id="82" depart="18123.00" departLane="-133781749_0" departPos="5.10" departSpeed="0.00" departDelay="3.00" arrival="18783.00" arrivalLane="-133781749_0" arrivalPos="138.68" arrivalSpeed="10.68" duration="660.00" routeLength="5499.56" waitingTime="107.00" waitingCount="9" stopTime="20.00" timeLoss="210.76" rerouteNo="1" devices="vehroute_82 tripinfo_82 emissions_82" vType="vecType" speedFactor="1.02" vaporized="">
        <emissions CO_abs="42591.162507" CO2_abs="1784647.477521" HC_abs="235.323779" PMx_abs="31.842698" NOx_abs="724.960802" fuel_abs="569230.303312" electricity_abs="0"/>
    </tripinfo>
    <tripinfo id="68" depart="18060.00" departLane="27167762_0" departPos="5.10" departSpeed="0.00" departDelay="0.00" arrival="18791.00" arrivalLane="27167762_0" arrivalPos="139.02" arrivalSpeed="22.25" duration="731.00" routeLength="12191.33" waitingTime="125.00" waitingCount="5" stopTime="0.00" timeLoss="197.35" rerouteNo="5" devices="vehroute_68 tripinfo_68 emissions_68" vType="vecType" speedFactor="1.04" vaporized="">
        <emissions CO_abs="61737.995653" CO2_abs="3136741.340022" HC_abs="357.537591" PMx_abs="66.272887" NOx_abs="1223.490102" fuel_abs="1000482.455422" electricity_abs="0"/>
    </tripinfo>
    <tripinfo id="31" depart="18006.00" departLane="123867455_0" departPos="5.10" departSpeed="0.00" departDelay="6.00" arrival="18796.00" arrivalLane="123867455_0" arrivalPos="904.85" arrivalSpeed="32.61" duration="790.00" routeLength="7632.90" waitingTime="182.00" waitingCount="8" stopTime="20.00" timeLoss="305.94" rerouteNo="1" devices="vehroute_31 tripinfo_31 emissions_31" vType="vecType" speedFactor="1.15" vaporized="">
        <emissions CO_abs="60455.506114" CO2_abs="2513882.954240" HC_abs="333.907645" PMx_abs="49.017000" NOx_abs="1025.570055" fuel_abs="801824.090131" electricity_abs="0"/>
    </tripinfo>
    <tripinfo id="13" depart="18003.00" departLane="90077241_0" departPos="5.10" departSpeed="0.00" departDelay="3.00" arrival="18835.00" arrivalLane="90077241_0" arrivalPos="3225.35" arrivalSpeed="32.14" duration="832.00" routeLength="12752.38" waitingTime="216.00" waitingCount="7" stopTime="20.00" timeLoss="291.90" rerouteNo="1" devices="vehroute_13 tripinfo_13 emissions_13" vType="vecType" speedFactor="1.12" vaporized="">
        <emissions CO_abs="88056.885928" CO2_abs="3683221.414697" HC_abs="491.915762" PMx_abs="83.102813" NOx_abs="1463.666431" fuel_abs="1174790.095179" electricity_abs="0"/>
    </tripinfo>
    <tripinfo id="132" depart="18300.00" departLane="142972028#1_0" departPos="5.10" departSpeed="0.00" departDelay="0.00" arrival="18843.00" arrivalLane="142972028#1_0" arrivalPos="161.20" arrivalSpeed="13.38" duration="543.00" routeLength="5492.34" waitingTime="66.00" waitingCount="4" stopTime="20.00" timeLoss="169.41" rerouteNo="2" devices="vehroute_132 tripinfo_132 emissions_132" vType="vecType" speedFactor="1.23" vaporized="">
        <emissions CO_abs="32401.819616" CO2_abs="1674711.137114" HC_abs="185.366544" PMx_abs="30.283797" NOx_abs="677.547196" fuel_abs="534159.926457" electricity_abs="0"/>
    </tripinfo>
    <tripinfo id="2" depart="18000.00" departLane="142972028#1_0" departPos="5.10" departSpeed="0.00" departDelay="0.00" arrival="18848.00" arrivalLane="142972028#1_0" arrivalPos="161.20" arrivalSpeed="11.07" duration="848.00" routeLength="6732.31" waitingTime="173.00" waitingCount="10" stopTime="20.00" timeLoss="290.26" rerouteNo="2" devices="vehroute_2 tripinfo_2 emissions_2" vType="vecType" speedFactor="1.01" vaporized="">
        <emissions CO_abs="55387.433576" CO2_abs="2205936.582788" HC_abs="303.155889" PMx_abs="38.840321" NOx_abs="894.043315" fuel_abs="703606.681662" electricity_abs="0"/>
    </tripinfo>
    <tripinfo id="84" depart="18123.00" departLane="90077241_0" departPos="5.10" departSpeed="0.00" departDelay="3.00" arrival="18849.00" arrivalLane="90077241_0" arrivalPos="3225.35" arrivalSpeed="32.17" duration="726.00" routeLength="12280.95" waitingTime="164.00" waitingCount="6" stopTime="20.00" timeLoss="230.80" rerouteNo="1" devices="vehroute_84 tripinfo_84 emissions_84" vType="vecType" speedFactor="1.15" vaporized="">
        <emissions CO_abs="80264.151060" CO2_abs="3455133.020620" HC_abs="451.300618" PMx_abs="79.594988" NOx_abs="1368.321540" fuel_abs="1102037.452318" electricity_abs="0"/>
    </tripinfo>
    <tripinfo id="40" depart="18000.00" departLane="-206679802#4_0" departPos="5.10" departSpeed="0.00" departDelay="0.00" arrival="18862.00" arrivalLane="-206679802#4_0" arrivalPos="292.11" arrivalSpeed="11.27" duration="862.00" routeLength="6162.76" waitingTime="210.00" waitingCount="7" stopTime="20.00" timeLoss="306.31" rerouteNo="7" devices="vehroute_40 tripinfo_40 emissions_40" vType="vecType" speedFactor="1.03" vaporized="">
        <emissions CO_abs="58671.701058" CO2_abs="2143958.636107" HC_abs="316.711764" PMx_abs="38.048331" NOx_abs="878.509721" fuel_abs="683840.414567" electricity_abs="0"/>
    </tripinfo>
    <tripinfo id="64" depart="18060.00" departLane="28319343#2_0" departPos="5.10" departSpeed="0.00" departDelay="0.00" arrival="18872.00" arrivalLane="28319343#2_0" arrivalPos="90.58" arrivalSpeed="10.34" duration="812.00" routeLength="9974.14" waitingTime="214.00" waitingCount="8" stopTime="0.00" timeLoss="285.80" rerouteNo="1" devices="vehroute_64 tripinfo_64 emissions_64" vType="vecType" speedFactor="0.94" vaporized="">
        <emissions CO_abs="64888.619376" CO2_abs="2750407.136778" HC_abs="360.591921" PMx_abs="54.722439" NOx_abs="1087.742696" fuel_abs="877266.568815" electricity_abs="0"/>
    </tripinfo>
    <tripinfo id="168" depart="18540.00" departLane="191296172#0_0" departPos="5.10" departSpeed="0.00" departDelay="0.00" arrival="18872.00" arrivalLane="191296172#0_1" arrivalPos="157.44" arrivalSpeed="11.20" duration="332.00" routeLength="2760.55" waitingTime="36.00" waitingCount="2" stopTime="20.00" timeLoss="86.39" rerouteNo="2" devices="vehroute_168 tripinfo_168 emissions_168" vType="vecType" speedFactor="1.09" vaporized="">
        <emissions CO_abs="16568.240542" CO2_abs="818191.117156" HC_abs="94.151246" PMx_abs="13.280176" NOx_abs="326.426778" fuel_abs="260969.274999" electricity_abs="0"/>
    </tripinfo>
    <tripinfo id="27" depart="18000.00" departLane="-8916048_0" departPos="5.10" departSpeed="0.00" departDelay="0.00" arrival="18881.00" arrivalLane="-8916048_0" arrivalPos="126.72" arrivalSpeed="9.31" duration="881.00" routeLength="6742.86" waitingTime="179.00" waitingCount="7" stopTime="20.00" timeLoss="284.13" rerouteNo="1" devices="vehroute_27 tripinfo_27 emissions_27" vType="vecType" speedFactor="0.95" vaporized="">
        <emissions CO_abs="56829.137528" CO2_abs="2206994.440331" HC_abs="309.478706" PMx_abs="38.555601" NOx_abs="894.330596" fuel_abs="703945.148535" electricity_abs="0"/>
    </tripinfo>
    <tripinfo id="0" depart="18000.00" departLane="84823308_0" departPos="5.10" departSpeed="0.00" departDelay="0.00" arrival="18886.00" arrivalLane="84823308_0" arrivalPos="275.63" arrivalSpeed="11.25" duration="886.00" routeLength="5801.00" waitingTime="285.00" waitingCount="8" stopTime="20.00" timeLoss="375.70" rerouteNo="7" devices="vehroute_0 tripinfo_0 emissions_0" vType="vecType" speedFactor="1.06" vaporized="">
        <emissions CO_abs="67923.891170" CO2_abs="2207272.132371" HC_abs="360.100791" PMx_abs="40.378457" NOx_abs="910.885718" fuel_abs="704038.482543" electricity_abs="0"/>
    </tripinfo>
    <tripinfo id="85" depart="18126.00" departLane="90077241_0" departPos="5.10" departSpeed="0.00" departDelay="6.00" arrival="18887.00" arrivalLane="90077241_0" arrivalPos="3225.35" arrivalSpeed="27.34" duration="761.00" routeLength="11984.76" waitingTime="143.00" waitingCount="6" stopTime="20.00" timeLoss="211.36" rerouteNo="1" devices="vehroute_85 tripinfo_85 emissions_85" vType="vecType" speedFactor="0.98" vaporized="">
        <emissions CO_abs="60353.384264" CO2_abs="3042855.057502" HC_abs="348.146420" PMx_abs="62.999698" NOx_abs="1178.494044" fuel_abs="970538.446602" electricity_abs="0"/>
    </tripinfo>
    <tripinfo id="117" depart="18240.00" departLane="27167762_0" departPos="5.10" departSpeed="0.00" departDelay="0.00" arrival="18889.00" arrivalLane="27167762_0" arrivalPos="139.02" arrivalSpeed="23.50" duration="649.00" routeLength="5016.55" waitingTime="231.00" waitingCount="8" stopTime="20.00" timeLoss="315.85" rerouteNo="1" devices="vehroute_117 tripinfo_117 emissions_117" vType="vecType" speedFactor="1.07" vaporized="">
        <emissions CO_abs="61723.695207" CO2_abs="2079041.341745" HC_abs="330.265559" PMx_abs="43.335492" NOx_abs="874.913255" fuel_abs="663131.437677" electricity_abs="0"/>
    </tripinfo>
    <tripinfo id="42" depart="18009.00" departLane="31129765_0" departPos="5.10" departSpeed="0.00" departDelay="9.00" arrival="18892.00" arrivalLane="31129765_0" arrivalPos="639.51" arrivalSpeed="24.36" duration="883.00" routeLength="7763.38" waitingTime="287.00" waitingCount="12" stopTime="20.00" timeLoss="394.52" rerouteNo="1" devices="vehroute_42 tripinfo_42 emissions_42" vType="vecType" speedFactor="1.09" vaporized="">
        <emissions CO_abs="78838.055467" CO2_abs="2863493.579539" HC_abs="426.023273" PMx_abs="57.655405" NOx_abs="1180.342678" fuel_abs="913339.597984" electricity_abs="0"/>
    </tripinfo>
    <tripinfo id="29" depart="18000.00" departLane="-35977367#2_0" departPos="5.10" departSpeed="0.00" departDelay="0.00" arrival="18897.00" arrivalLane="-35977367#2_0" arrivalPos="431.73" arrivalSpeed="9.45" duration="897.00" routeLength="6070.29" waitingTime="198.00" waitingCount="8" stopTime="20.00" timeLoss="293.20" rerouteNo="3" devices="vehroute_29 tripinfo_29 emissions_29" vType="vecType" speedFactor="0.93" vaporized="">
        <emissions CO_abs="59127.883647" CO2_abs="2126973.026134" HC_abs="318.162718" PMx_abs="36.452335" NOx_abs="866.691698" fuel_abs="678424.406446" electricity_abs="0"/>
    </tripinfo>
    <tripinfo id="10" depart="18000.00" departLane="90077241_0" departPos="5.10" departSpeed="0.00" departDelay="0.00" arrival="18907.00" arrivalLane="90077241_0" arrivalPos="3225.35" arrivalSpeed="30.68" duration="907.00" routeLength="12917.03" waitingTime="237.00" waitingCount="9" stopTime="20.00" timeLoss="337.08" rerouteNo="5" devices="vehroute_10 tripinfo_10 emissions_10" vType="vecType" speedFactor="1.09" vaporized="">
        <emissions CO_abs="91620.768288" CO2_abs="3795537.808910" HC_abs="510.428692" PMx_abs="84.013687" NOx_abs="1512.815643" fuel_abs="1210615.472227" electricity_abs="0"/>
    </tripinfo>
    <tripinfo id="25" depart="18003.00" departLane="-23883761_0" departPos="5.10" departSpeed="0.00" departDelay="3.00" arrival="18907.00" arrivalLane="-23883761_0" arrivalPos="197.88" arrivalSpeed="8.56" duration="904.00" routeLength="5896.49" waitingTime="173.00" waitingCount="11" stopTime="20.00" timeLoss="278.73" rerouteNo="2" devices="vehroute_25 tripinfo_25 emissions_25" vType="vecType" speedFactor="0.87" vaporized="">
        <emissions CO_abs="56257.197172" CO2_abs="1961523.347948" HC_abs="301.119505" PMx_abs="33.178068" NOx_abs="798.537024" fuel_abs="625653.606782" electricity_abs="0"/>
    </tripinfo>
    <tripinfo id="79" depart="18120.00" departLane="-24310636#2_0" departPos="5.10" departSpeed="0.00" departDelay="0.00" arrival="18907.00" arrivalLane="-24310636#2_1" arrivalPos="108.36" arrivalSpeed="11.13" duration="787.00" routeLength="6581.41" waitingTime="173.00" waitingCount="6" stopTime="20.00" timeLoss="276.19" rerouteNo="1" devices="vehroute_79 tripinfo_79 emissions_79" vType="vecType" speedFactor="1.09" vaporized="">
        <emissions CO_abs="53702.461170" CO2_abs="2157526.721766" HC_abs="294.484692" PMx_abs="39.649939" NOx_abs="882.140545" fuel_abs="688163.934236" electricity_abs="0"/>
    </tripinfo>
    <tripinfo id="104" depart="18180.00" departLane="8915254_0" departPos="5.10" departSpeed="0.00" departDelay="0.00" arrival="18909.00" arrivalLane="8915254_0" arrivalPos="317.12" arrivalSpeed="18.63" duration="729.00" routeLength="5882.36" waitingTime="137.00" waitingCount="6" stopTime="20.00" timeLoss="215.43" rerouteNo="2" devices="vehroute_104 tripinfo_104 emissions_104" vType="vecType" speedFactor="0.89" vaporized="">
        <emissions CO_abs="45944.970917" CO2_abs="1854850.984048" HC_abs="251.457519" PMx_abs="32.459546" NOx_abs="748.897453" fuel_abs="591624.006737" electricity_abs="0"/>
    </tripinfo>
    <tripinfo id="99" depart="18180.00" departLane="-27029204_0" departPos="5.10" departSpeed="0.00" departDelay="0.00" arrival="18918.00" arrivalLane="-27029204_0" arrivalPos="195.60" arrivalSpeed="12.26" duration="738.00" routeLength="5700.35" waitingTime="214.00" waitingCount="8" stopTime="20.00" timeLoss="303.31" rerouteNo="1" devices="vehroute_99 tripinfo_99 emissions_99" vType="vecType" speedFactor="1.10" vaporized="">
        <emissions CO_abs="57722.673908" CO2_abs="2094404.831509" HC_abs="310.758277" PMx_abs="39.743610" NOx_abs="862.939106" fuel_abs="668032.743132" electricity_abs="0"/>
    </tripinfo>
    <tripinfo id="135" depart="18360.00" departLane="90077241_0" departPos="5.10" departSpeed="0.00" departDelay="0.00" arrival="18929.00" arrivalLane="90077241_0" arrivalPos="3225.35" arrivalSpeed="29.38" duration="569.00" routeLength="11126.88" waitingTime="69.00" waitingCount="3" stopTime="20.00" timeLoss="115.24" rerouteNo="1" devices="vehroute_135 tripinfo_135 emissions_135" vType="vecType" speedFactor="1.02" vaporized="">
        <emissions CO_abs="47169.391280" CO2_abs="2686072.084543" HC_abs="280.514181" PMx_abs="57.615420" NOx_abs="1024.875535" fuel_abs="856736.333649" electricity_abs="0"/>
    </tripinfo>
    <tripinfo id="127" depart="18240.00" departLane="-204967525_0" departPos="5.10" departSpeed="0.00" departDelay="0.00" arrival="18930.00" arrivalLane="-204967525_1" arrivalPos="146.26" arrivalSpeed="10.61" duration="690.00" routeLength="5247.72" waitingTime="115.00" waitingCount="10" stopTime="20.00" timeLoss="203.70" rerouteNo="1" devices="vehroute_127 tripinfo_127 emissions_127" vType="vecType" speedFactor="1.01" vaporized="">
        <emissions CO_abs="40282.145228" CO2_abs="1643399.874602" HC_abs="221.306309" PMx_abs="27.841721" NOx_abs="665.283391" fuel_abs="524179.904701" electricity_abs="0"/>
    </tripinfo>
    <tripinfo id="88" depart="18123.00" departLane="31129765_0" departPos="5.10" departSpeed="0.00" departDelay="3.00" arrival="18931.00" arrivalLane="31129765_0" arrivalPos="639.51" arrivalSpeed="22.47" duration="808.00" routeLength="6946.37" waitingTime="256.00" waitingCount="8" stopTime="20.00" timeLoss="353.90" rerouteNo="1" devices="vehroute_88 tripinfo_88 emissions_88" vType="vecType" speedFactor="1.01" vaporized="">
        <emissions CO_abs="69435.935803" CO2_abs="2491165.320105" HC_abs="374.276521" PMx_abs="49.304413" NOx_abs="1019.279932" fuel_abs="794583.428322" electricity_abs="0"/>
    </tripinfo>
    <tripinfo id="53" depart="18060.00" departLane="-27029200#2_0" departPos="5.10" departSpeed="0.00" departDelay="0.00" arrival="18935.00" arrivalLane="-27029200#2_0" arrivalPos="66.62" arrivalSpeed="11.51" duration="875.00" routeLength="6523.13" waitingTime="234.00" waitingCount="12" stopTime="20.00" timeLoss="373.63" rerouteNo="2" devices="vehroute_53 tripinfo_53 emissions_53" vType="vecType" speedFactor="1.10" vaporized="">
        <emissions CO_abs="67608.542597" CO2_abs="2430348.511550" HC_abs="364.345283" PMx_abs="46.446351" NOx_abs="1009.223975" fuel_abs="775185.245465" electricity_abs="0"/>
    </tripinfo>