<?xml version="1.0" encoding="UTF-8"?>

<!-- generated on 2022-12-16 10:09:41 by Eclipse SUMO sumo Version 1.14.1
<configuration xmlns:xsi="http://www.w3.org/2001/XMLSchema-instance" xsi:noNamespaceSchemaLocation="http://sumo.dlr.de/xsd/sumoConfiguration.xsd">

    <input>
        <net-file value="./strategia1_config/../san_francisco.net.xml"/>
        <route-files value="./strategia1_config/../san_francisco.rou.xml"/>
        <additional-files value="./strategia1_config/../san_francisco.poly.xml,./strategia1_config/../parking_capacity_100%25/off_parking_100%25.add.xml,./strategia1_config/../parking_capacity_100%25/on_parking_100%25.add.xml"/>
    </input>

    <output>
        <emission-output value="./strategia1_config/../output/strategia1/100%25/emissions.xml"/>
        <tripinfo-output value="./strategia1_config/../output/strategia1/100%25/tripinfo.xml"/>
        <vehroute-output value="./strategia1_config/../output/strategia1/100%25/vehroute.xml"/>
        <stop-output value="./strategia1_config/../output/strategia1/100%25/stops.xml"/>
        <collision-output value="./strategia1_config/../output/strategia1/100%25/collision.xml"/>
        <statistic-output value="./strategia1_config/../output/strategia1/100%25/statistic.xml"/>
    </output>

    <time>
        <step-length value="1"/>
    </time>

    <processing>
        <ignore-route-errors value="false"/>
        <time-to-teleport value="-1"/>
    </processing>

    <report>
        <verbose value="true"/>
        <xml-validation value="never"/>
    </report>

    <traci_server>
        <remote-port value="55889"/>
    </traci_server>

    <gui_only>
        <gui-settings-file value="./strategia1_config/../gui-settings.cfg"/>
        <start value="true"/>
    </gui_only>

</configuration>
-->

<tripinfos xmlns:xsi="http://www.w3.org/2001/XMLSchema-instance" xsi:noNamespaceSchemaLocation="http://sumo.dlr.de/xsd/tripinfo_file.xsd">
    <tripinfo id="30" depart="18000.00" departLane="-91181760#0_0" departPos="5.10" departSpeed="0.00" departDelay="0.00" arrival="18342.00" arrivalLane="-91181760#0_0" arrivalPos="79.70" arrivalSpeed="12.42" duration="342.00" routeLength="3660.42" waitingTime="1.00" waitingCount="1" stopTime="20.00" timeLoss="43.40" rerouteNo="1" devices="vehroute_30 tripinfo_30 emissions_30" vType="vecType" speedFactor="1.18" vaporized="">
        <emissions CO_abs="12181.712723" CO2_abs="962930.681993" HC_abs="77.191675" PMx_abs="15.333039" NOx_abs="379.360199" fuel_abs="307131.063505" electricity_abs="0"/>
    </tripinfo>
    <tripinfo id="1" depart="18000.00" departLane="31129765_0" departPos="5.10" departSpeed="0.00" departDelay="0.00" arrival="18352.00" arrivalLane="31129765_0" arrivalPos="639.51" arrivalSpeed="19.82" duration="352.00" routeLength="4341.32" waitingTime="22.00" waitingCount="2" stopTime="20.00" timeLoss="64.11" rerouteNo="1" devices="vehroute_1 tripinfo_1 emissions_1" vType="vecType" speedFactor="0.94" vaporized="">
        <emissions CO_abs="18667.448157" CO2_abs="1152313.980702" HC_abs="111.282786" PMx_abs="21.017890" NOx_abs="455.897043" fuel_abs="367536.211177" electricity_abs="0"/>
    </tripinfo>
    <tripinfo id="45" depart="18060.00" departLane="31129765_0" departPos="5.10" departSpeed="0.00" departDelay="0.00" arrival="18384.00" arrivalLane="31129765_0" arrivalPos="639.51" arrivalSpeed="24.24" duration="324.00" routeLength="4234.28" waitingTime="40.00" waitingCount="1" stopTime="20.00" timeLoss="81.13" rerouteNo="1" devices="vehroute_45 tripinfo_45 emissions_45" vType="vecType" speedFactor="1.09" vaporized="">
        <emissions CO_abs="23115.689184" CO2_abs="1293992.180123" HC_abs="135.793693" PMx_abs="25.795137" NOx_abs="522.239265" fuel_abs="412724.594379" electricity_abs="0"/>
    </tripinfo>
    <tripinfo id="60" depart="18060.00" departLane="8916792_0" departPos="5.10" departSpeed="0.00" departDelay="0.00" arrival="18487.00" arrivalLane="8916792_0" arrivalPos="615.11" arrivalSpeed="10.83" duration="427.00" routeLength="3743.73" waitingTime="56.00" waitingCount="3" stopTime="20.00" timeLoss="97.20" rerouteNo="1" devices="vehroute_60 tripinfo_60 emissions_60" vType="vecType" speedFactor="1.08" vaporized="">
        <emissions CO_abs="19594.545447" CO2_abs="979979.865665" HC_abs="111.290581" PMx_abs="15.046300" NOx_abs="383.067959" fuel_abs="312574.227477" electricity_abs="0"/>
    </tripinfo>
    <tripinfo id="74" depart="18120.00" departLane="144489137#0_0" departPos="5.10" departSpeed="0.00" departDelay="0.00" arrival="18540.00" arrivalLane="144489137#0_0" arrivalPos="135.49" arrivalSpeed="9.46" duration="420.00" routeLength="2278.79" waitingTime="142.00" waitingCount="6" stopTime="20.00" timeLoss="189.12" rerouteNo="2" devices="vehroute_74 tripinfo_74 emissions_74" vType="vecType" speedFactor="0.96" vaporized="">
        <emissions CO_abs="34528.483156" CO2_abs="998621.042017" HC_abs="180.391709" PMx_abs="19.305050" NOx_abs="420.939530" fuel_abs="318524.382521" electricity_abs="0"/>
    </tripinfo>
    <tripinfo id="76" depart="18120.00" departLane="225806031#0_0" departPos="5.10" departSpeed="0.00" departDelay="0.00" arrival="18576.00" arrivalLane="225806031#0_0" arrivalPos="142.16" arrivalSpeed="11.12" duration="456.00" routeLength="3181.76" waitingTime="107.00" waitingCount="4" stopTime="20.00" timeLoss="161.63" rerouteNo="1" devices="vehroute_76 tripinfo_76 emissions_76" vType="vecType" speedFactor="1.03" vaporized="">
        <emissions CO_abs="31279.637102" CO2_abs="1148817.683862" HC_abs="168.956667" PMx_abs="20.404415" NOx_abs="470.748878" fuel_abs="366428.578243" electricity_abs="0"/>
    </tripinfo>
    <tripinfo id="28" depart="18009.00" departLane="90077241_0" departPos="5.10" departSpeed="0.00" departDelay="9.00" arrival="18589.00" arrivalLane="90077241_0" arrivalPos="3225.35" arrivalSpeed="32.54" duration="580.00" routeLength="11976.91" waitingTime="66.00" waitingCount="2" stopTime="20.00" timeLoss="126.25" rerouteNo="2" devices="vehroute_28 tripinfo_28 emissions_28" vType="vecType" speedFactor="1.13" vaporized="">
        <emissions CO_abs="61349.610897" CO2_abs="3146707.612102" HC_abs="358.176588" PMx_abs="72.306501" NOx_abs="1232.762689" fuel_abs="1003656.829305" electricity_abs="0"/>
    </tripinfo>
    <tripinfo id="49" depart="18063.00" departLane="31129765_0" departPos="5.10" departSpeed="0.00" departDelay="3.00" arrival="18662.00" arrivalLane="31129765_0" arrivalPos="639.51" arrivalSpeed="17.71" duration="599.00" routeLength="12944.78" waitingTime="0.00" waitingCount="0" stopTime="20.00" timeLoss="33.11" rerouteNo="1" devices="vehroute_49 tripinfo_49 emissions_49" vType="vecType" speedFactor="0.85" vaporized="">
        <emissions CO_abs="22196.813074" CO2_abs="2447284.605442" HC_abs="156.217749" PMx_abs="44.155029" NOx_abs="883.111614" fuel_abs="780568.469899" electricity_abs="0"/>
    </tripinfo>
    <tripinfo id="93" depart="18120.00" departLane="-254758121#2_0" departPos="5.10" departSpeed="0.00" departDelay="0.00" arrival="18663.00" arrivalLane="-254758121#2_0" arrivalPos="99.35" arrivalSpeed="10.05" duration="543.00" routeLength="3841.81" waitingTime="93.00" waitingCount="4" stopTime="20.00" timeLoss="149.73" rerouteNo="3" devices="vehroute_93 tripinfo_93 emissions_93" vType="vecType" speedFactor="0.92" vaporized="">
        <emissions CO_abs="31641.814945" CO2_abs="1237664.270179" HC_abs="172.532684" PMx_abs="20.711779" NOx_abs="501.219212" fuel_abs="394767.165253" electricity_abs="0"/>
    </tripinfo>
    <tripinfo id="16" depart="18006.00" departLane="90077241_0" departPos="5.10" departSpeed="0.00" departDelay="6.00" arrival="18689.00" arrivalLane="90077241_0" arrivalPos="3225.35" arrivalSpeed="24.69" duration="683.00" routeLength="11625.26" waitingTime="83.00" waitingCount="3" stopTime="20.00" timeLoss="138.86" rerouteNo="1" devices="vehroute_16 tripinfo_16 emissions_16" vType="vecType" speedFactor="0.88" vaporized="">
        <emissions CO_abs="41529.167116" CO2_abs="2633636.947918" HC_abs="249.359638" PMx_abs="50.736138" NOx_abs="1000.145544" fuel_abs="840011.968740" electricity_abs="0"/>
    </tripinfo>
    <tripinfo id="33" depart="18000.00" departLane="144489137#0_0" departPos="5.10" departSpeed="0.00" departDelay="0.00" arrival="18691.00" arrivalLane="144489137#0_0" arrivalPos="135.49" arrivalSpeed="12.59" duration="691.00" routeLength="3872.00" waitingTime="294.00" waitingCount="12" stopTime="20.00" timeLoss="377.57" rerouteNo="1" devices="vehroute_33 tripinfo_33 emissions_33" vType="vecType" speedFactor="1.17" vaporized="">
        <emissions CO_abs="64995.062865" CO2_abs="1849167.412151" HC_abs="338.179281" PMx_abs="36.574043" NOx_abs="779.146370" fuel_abs="589818.285581" electricity_abs="0"/>
    </tripinfo>
    <tripinfo id="21" depart="18000.00" departLane="27167762_0" departPos="5.10" departSpeed="0.00" departDelay="0.00" arrival="18712.00" arrivalLane="27167762_0" arrivalPos="139.02" arrivalSpeed="21.54" duration="712.00" routeLength="12026.47" waitingTime="115.00" waitingCount="6" stopTime="0.00" timeLoss="177.29" rerouteNo="6" devices="vehroute_21 tripinfo_21 emissions_21" vType="vecType" speedFactor="1.01" vaporized="">
        <emissions CO_abs="57063.496537" CO2_abs="3025872.405392" HC_abs="333.698354" PMx_abs="62.608842" NOx_abs="1171.516956" fuel_abs="965120.152824" electricity_abs="0"/>
    </tripinfo>
    <tripinfo id="63" depart="18063.00" departLane="-204967525_0" departPos="5.10" departSpeed="0.00" departDelay="3.00" arrival="18749.00" arrivalLane="-204967525_1" arrivalPos="146.26" arrivalSpeed="10.28" duration="686.00" routeLength="4830.14" waitingTime="137.00" waitingCount="8" stopTime="20.00" timeLoss="227.51" rerouteNo="1" devices="vehroute_63 tripinfo_63 emissions_63" vType="vecType" speedFactor="0.99" vaporized="">
        <emissions CO_abs="42649.002760" CO2_abs="1585037.309320" HC_abs="230.627653" PMx_abs="26.678828" NOx_abs="640.893603" fuel_abs="505567.110717" electricity_abs="0"/>
    </tripinfo>
    <tripinfo id="15" depart="18000.00" departLane="-24310636#2_0" departPos="5.10" departSpeed="0.00" departDelay="0.00" arrival="18753.00" arrivalLane="-24310636#2_1" arrivalPos="108.36" arrivalSpeed="9.90" duration="753.00" routeLength="6010.81" waitingTime="130.00" waitingCount="7" stopTime="20.00" timeLoss="212.40" rerouteNo="1" devices="vehroute_15 tripinfo_15 emissions_15" vType="vecType" speedFactor="0.93" vaporized="">
        <emissions CO_abs="44481.006405" CO2_abs="1808345.321175" HC_abs="244.206905" PMx_abs="31.274358" NOx_abs="730.526607" fuel_abs="576790.692097" electricity_abs="0"/>
    </tripinfo>
    <tripinfo id="20" depart="18000.00" departLane="123867455_0" departPos="5.10" departSpeed="0.00" departDelay="0.00" arrival="18760.00" arrivalLane="123867455_0" arrivalPos="904.85" arrivalSpeed="28.77" duration="760.00" routeLength="6719.97" waitingTime="211.00" waitingCount="7" stopTime="20.00" timeLoss="293.71" rerouteNo="3" devices="vehroute_20 tripinfo_20 emissions_20" vType="vecType" speedFactor="1.02" vaporized="">
        <emissions CO_abs="60773.875290" CO2_abs="2311916.901114" HC_abs="331.097831" PMx_abs="44.945807" NOx_abs="943.311729" fuel_abs="737408.707130" electricity_abs="0"/>
    </tripinfo>
    <tripinfo id="39" depart="18006.00" departLane="31129765_0" departPos="5.10" departSpeed="0.00" departDelay="6.00" arrival="18767.00" arrivalLane="31129765_0" arrivalPos="639.51" arrivalSpeed="20.04" duration="761.00" routeLength="6254.53" waitingTime="250.00" waitingCount="8" stopTime="20.00" timeLoss="324.79" rerouteNo="3" devices="vehroute_39 tripinfo_39 emissions_39" vType="vecType" speedFactor="0.90" vaporized="">
        <emissions CO_abs="63592.367788" CO2_abs="2203782.596790" HC_abs="339.876685" PMx_abs="42.720730" NOx_abs="900.375266" fuel_abs="702921.449810" electricity_abs="0"/>
    </tripinfo>
    <tripinfo id="47" depart="18060.00" departLane="90077241_0" departPos="5.10" departSpeed="0.00" departDelay="0.00" arrival="18771.00" arrivalLane="90077241_0" arrivalPos="3225.35" arrivalSpeed="24.95" duration="711.00" routeLength="12027.49" waitingTime="56.00" waitingCount="2" stopTime="20.00" timeLoss="113.43" rerouteNo="4" devices="vehroute_47 tripinfo_47 emissions_47" vType="vecType" speedFactor="0.90" vaporized="">
        <emissions CO_abs="40348.139541" CO2_abs="2688223.574252" HC_abs="246.356606" PMx_abs="51.437208" NOx_abs="1019.728146" fuel_abs="857422.142265" electricity_abs="0"/>
    </tripinfo>
    <tripinfo id="82" depart="18123.00" departLane="-133781749_0" departPos="5.10" departSpeed="0.00" departDelay="3.00" arrival="18784.00" arrivalLane="-133781749_0" arrivalPos="138.68" arrivalSpeed="10.45" duration="661.00" routeLength="5499.56" waitingTime="105.00" waitingCount="9" stopTime="20.00" timeLoss="211.36" rerouteNo="1" devices="vehroute_82 tripinfo_82 emissions_82" vType="vecType" speedFactor="1.02" vaporized="">
        <emissions CO_abs="42574.087761" CO2_abs="1805377.069786" HC_abs="235.737594" PMx_abs="32.490876" NOx_abs="734.073091" fuel_abs="575841.645310" electricity_abs="0"/>
    </tripinfo>
    <tripinfo id="36" depart="18009.00" departLane="123867455_0" departPos="5.10" departSpeed="0.00" departDelay="9.00" arrival="18793.00" arrivalLane="123867455_0" arrivalPos="904.85" arrivalSpeed="28.01" duration="784.00" routeLength="5734.57" waitingTime="305.00" waitingCount="8" stopTime="20.00" timeLoss="396.01" rerouteNo="3" devices="vehroute_36 tripinfo_36 emissions_36" vType="vecType" speedFactor="0.97" vaporized="">
        <emissions CO_abs="75387.852264" CO2_abs="2349505.815482" HC_abs="398.804062" PMx_abs="48.622765" NOx_abs="979.787567" fuel_abs="749403.304979" electricity_abs="0"/>
    </tripinfo>
    <tripinfo id="31" depart="18006.00" departLane="123867455_0" departPos="5.10" departSpeed="0.00" departDelay="6.00" arrival="18797.00" arrivalLane="123867455_0" arrivalPos="904.85" arrivalSpeed="32.75" duration="791.00" routeLength="7632.90" waitingTime="185.00" waitingCount="8" stopTime="20.00" timeLoss="306.22" rerouteNo="1" devices="vehroute_31 tripinfo_31 emissions_31" vType="vecType" speedFactor="1.15" vaporized="">
        <emissions CO_abs="60979.705225" CO2_abs="2531837.135189" HC_abs="336.752654" PMx_abs="49.573133" NOx_abs="1033.975199" fuel_abs="807550.573666" electricity_abs="0"/>
    </tripinfo>
    <tripinfo id="0" depart="18000.00" departLane="84823308_0" departPos="5.10" departSpeed="0.00" departDelay="0.00" arrival="18803.00" arrivalLane="84823308_0" arrivalPos="275.63" arrivalSpeed="11.84" duration="803.00" routeLength="5711.39" waitingTime="213.00" waitingCount="7" stopTime="20.00" timeLoss="300.86" rerouteNo="4" devices="vehroute_0 tripinfo_0 emissions_0" vType="vecType" speedFactor="1.06" vaporized="">
        <emissions CO_abs="55555.683393" CO2_abs="1987686.293773" HC_abs="298.607106" PMx_abs="34.958148" NOx_abs="810.334631" fuel_abs="633996.797212" electricity_abs="0"/>
    </tripinfo>
    <tripinfo id="13" depart="18003.00" departLane="90077241_0" departPos="5.10" departSpeed="0.00" departDelay="3.00" arrival="18837.00" arrivalLane="90077241_0" arrivalPos="3225.35" arrivalSpeed="32.37" duration="834.00" routeLength="12752.38" waitingTime="214.00" waitingCount="7" stopTime="20.00" timeLoss="292.99" rerouteNo="1" devices="vehroute_13 tripinfo_13 emissions_13" vType="vecType" speedFactor="1.12" vaporized="">
        <emissions CO_abs="88551.767165" CO2_abs="3706744.470447" HC_abs="494.635178" PMx_abs="83.493849" NOx_abs="1471.805437" fuel_abs="1182293.079898" electricity_abs="0"/>
    </tripinfo>
    <tripinfo id="2" depart="18000.00" departLane="142972028#1_0" departPos="5.10" departSpeed="0.00" departDelay="0.00" arrival="18847.00" arrivalLane="142972028#1_0" arrivalPos="161.20" arrivalSpeed="10.63" duration="847.00" routeLength="6951.71" waitingTime="150.00" waitingCount="11" stopTime="20.00" timeLoss="269.80" rerouteNo="2" devices="vehroute_2 tripinfo_2 emissions_2" vType="vecType" speedFactor="1.01" vaporized="">
        <emissions CO_abs="51790.609232" CO2_abs="2167969.084629" HC_abs="285.685393" PMx_abs="37.170841" NOx_abs="872.179913" fuel_abs="691496.009166" electricity_abs="0"/>
    </tripinfo>
    <tripinfo id="84" depart="18123.00" departLane="90077241_0" departPos="5.10" departSpeed="0.00" departDelay="3.00" arrival="18850.00" arrivalLane="90077241_0" arrivalPos="3225.35" arrivalSpeed="32.33" duration="727.00" routeLength="12280.95" waitingTime="162.00" waitingCount="5" stopTime="20.00" timeLoss="231.67" rerouteNo="1" devices="vehroute_84 tripinfo_84 emissions_84" vType="vecType" speedFactor="1.15" vaporized="">
        <emissions CO_abs="79964.408474" CO2_abs="3443101.322809" HC_abs="449.470977" PMx_abs="79.250854" NOx_abs="1365.657662" fuel_abs="1098199.718639" electricity_abs="0"/>
    </tripinfo>
    <tripinfo id="64" depart="18060.00" departLane="28319343#2_0" departPos="5.10" departSpeed="0.00" departDelay="0.00" arrival="18872.00" arrivalLane="28319343#2_0" arrivalPos="90.58" arrivalSpeed="9.67" duration="812.00" routeLength="9974.14" waitingTime="213.00" waitingCount="8" stopTime="0.00" timeLoss="285.26" rerouteNo="1" devices="vehroute_64 tripinfo_64 emissions_64" vType="vecType" speedFactor="0.94" vaporized="">
        <emissions CO_abs="65021.073177" CO2_abs="2754086.422173" HC_abs="360.981717" PMx_abs="54.839290" NOx_abs="1088.364587" fuel_abs="878440.066604" electricity_abs="0"/>
    </tripinfo>
    <tripinfo id="27" depart="18000.00" departLane="-8916048_0" departPos="5.10" departSpeed="0.00" departDelay="0.00" arrival="18880.00" arrivalLane="-8916048_0" arrivalPos="126.72" arrivalSpeed="10.06" duration="880.00" routeLength="6742.86" waitingTime="178.00" waitingCount="7" stopTime="20.00" timeLoss="282.88" rerouteNo="1" devices="vehroute_27 tripinfo_27 emissions_27" vType="vecType" speedFactor="0.95" vaporized="">
        <emissions CO_abs="56835.541838" CO2_abs="2215866.737084" HC_abs="309.792090" PMx_abs="38.194166" NOx_abs="895.072215" fuel_abs="706775.511745" electricity_abs="0"/>
    </tripinfo>
    <tripinfo id="68" depart="18060.00" departLane="27167762_0" departPos="5.10" departSpeed="0.00" departDelay="0.00" arrival="18887.00" arrivalLane="27167762_0" arrivalPos="139.02" arrivalSpeed="22.42" duration="827.00" routeLength="12409.97" waitingTime="189.00" waitingCount="9" stopTime="0.00" timeLoss="274.57" rerouteNo="7" devices="vehroute_68 tripinfo_68 emissions_68" vType="vecType" speedFactor="1.04" vaporized="">
        <emissions CO_abs="75726.374109" CO2_abs="3421034.537879" HC_abs="428.253168" PMx_abs="73.092257" NOx_abs="1349.581177" fuel_abs="1091163.214797" electricity_abs="0"/>
    </tripinfo>
    <tripinfo id="85" depart="18126.00" departLane="90077241_0" departPos="5.10" departSpeed="0.00" departDelay="6.00" arrival="18887.00" arrivalLane="90077241_0" arrivalPos="3225.35" arrivalSpeed="27.76" duration="761.00" routeLength="11984.76" waitingTime="144.00" waitingCount="6" stopTime="20.00" timeLoss="210.94" rerouteNo="1" devices="vehroute_85 tripinfo_85 emissions_85" vType="vecType" speedFactor="0.98" vaporized="">
        <emissions CO_abs="61149.818726" CO2_abs="3068346.557287" HC_abs="352.649649" PMx_abs="63.545121" NOx_abs="1189.022898" fuel_abs="978669.310010" electricity_abs="0"/>
    </tripinfo>
    <tripinfo id="42" depart="18009.00" departLane="31129765_0" departPos="5.10" departSpeed="0.00" departDelay="9.00" arrival="18891.00" arrivalLane="31129765_0" arrivalPos="639.51" arrivalSpeed="23.81" duration="882.00" routeLength="7763.38" waitingTime="284.00" waitingCount="12" stopTime="20.00" timeLoss="393.78" rerouteNo="1" devices="vehroute_42 tripinfo_42 emissions_42" vType="vecType" speedFactor="1.09" vaporized="">
        <emissions CO_abs="78856.370155" CO2_abs="2866784.799580" HC_abs="426.235253" PMx_abs="57.787941" NOx_abs="1182.272273" fuel_abs="914389.218981" electricity_abs="0"/>
    </tripinfo>
    <tripinfo id="29" depart="18000.00" departLane="-35977367#2_0" departPos="5.10" departSpeed="0.00" departDelay="0.00" arrival="18894.00" arrivalLane="-35977367#2_0" arrivalPos="431.73" arrivalSpeed="9.85" duration="894.00" routeLength="6070.29" waitingTime="200.00" waitingCount="8" stopTime="20.00" timeLoss="290.93" rerouteNo="3" devices="vehroute_29 tripinfo_29 emissions_29" vType="vecType" speedFactor="0.93" vaporized="">
        <emissions CO_abs="58701.809723" CO2_abs="2108064.194077" HC_abs="315.796372" PMx_abs="36.199671" NOx_abs="859.489228" fuel_abs="672393.182259" electricity_abs="0"/>
    </tripinfo>
    <tripinfo id="117" depart="18240.00" departLane="27167762_0" departPos="5.10" departSpeed="0.00" departDelay="0.00" arrival="18895.00" arrivalLane="27167762_0" arrivalPos="139.02" arrivalSpeed="23.72" duration="655.00" routeLength="5016.55" waitingTime="221.00" waitingCount="9" stopTime="20.00" timeLoss="322.23" rerouteNo="1" devices="vehroute_117 tripinfo_117 emissions_117" vType="vecType" speedFactor="1.07" vaporized="">
        <emissions CO_abs="62166.080102" CO2_abs="2107885.230094" HC_abs="333.018894" PMx_abs="43.504824" NOx_abs="884.304767" fuel_abs="672331.702913" electricity_abs="0"/>
    </tripinfo>
    <tripinfo id="79" depart="18120.00" departLane="-24310636#2_0" departPos="5.10" departSpeed="0.00" departDelay="0.00" arrival="18905.00" arrivalLane="-24310636#2_1" arrivalPos="108.36" arrivalSpeed="11.25" duration="785.00" routeLength="6581.41" waitingTime="175.00" waitingCount="7" stopTime="20.00" timeLoss="274.17" rerouteNo="1" devices="vehroute_79 tripinfo_79 emissions_79" vType="vecType" speedFactor="1.09" vaporized="">
        <emissions CO_abs="53566.469621" CO2_abs="2183658.781139" HC_abs="294.134165" PMx_abs="39.558686" NOx_abs="887.436853" fuel_abs="696499.247538" electricity_abs="0"/>
    </tripinfo>
    <tripinfo id="10" depart="18000.00" departLane="90077241_0" departPos="5.10" departSpeed="0.00" departDelay="0.00" arrival="18906.00" arrivalLane="90077241_0" arrivalPos="3225.35" arrivalSpeed="30.72" duration="906.00" routeLength="12917.03" waitingTime="233.00" waitingCount="9" stopTime="20.00" timeLoss="335.75" rerouteNo="5" devices="vehroute_10 tripinfo_10 emissions_10" vType="vecType" speedFactor="1.09" vaporized="">
        <emissions CO_abs="91241.234707" CO2_abs="3803341.682830" HC_abs="508.863775" PMx_abs="83.851867" NOx_abs="1509.125961" fuel_abs="1213104.943399" electricity_abs="0"/>
    </tripinfo>
    <tripinfo id="25" depart="18003.00" departLane="-23883761_0" departPos="5.10" departSpeed="0.00" departDelay="3.00" arrival="18906.00" arrivalLane="-23883761_0" arrivalPos="197.88" arrivalSpeed="9.33" duration="903.00" routeLength="5896.49" waitingTime="176.00" waitingCount="11" stopTime="20.00" timeLoss="278.11" rerouteNo="2" devices="vehroute_25 tripinfo_25 emissions_25" vType="vecType" speedFactor="0.87" vaporized="">
        <emissions CO_abs="56690.756588" CO2_abs="1965802.516035" HC_abs="303.132618" PMx_abs="32.969154" NOx_abs="798.156197" fuel_abs="627019.043446" electricity_abs="0"/>
    </tripinfo>
    <tripinfo id="104" depart="18180.00" departLane="8915254_0" departPos="5.10" departSpeed="0.00" departDelay="0.00" arrival="18910.00" arrivalLane="8915254_0" arrivalPos="317.12" arrivalSpeed="19.23" duration="730.00" routeLength="5882.36" waitingTime="140.00" waitingCount="6" stopTime="20.00" timeLoss="216.03" rerouteNo="2" devices="vehroute_104 tripinfo_104 emissions_104" vType="vecType" speedFactor="0.89" vaporized="">
        <emissions CO_abs="46072.802183" CO2_abs="1849798.434770" HC_abs="252.107195" PMx_abs="32.655273" NOx_abs="749.054770" fuel_abs="590012.234878" electricity_abs="0"/>
    </tripinfo>
    <tripinfo id="99" depart="18180.00" departLane="-27029204_0" departPos="5.10" departSpeed="0.00" departDelay="0.00" arrival="18918.00" arrivalLane="-27029204_0" arrivalPos="195.60" arrivalSpeed="12.22" duration="738.00" routeLength="5700.35" waitingTime="206.00" waitingCount="8" stopTime="20.00" timeLoss="303.67" rerouteNo="2" devices="vehroute_99 tripinfo_99 emissions_99" vType="vecType" speedFactor="1.10" vaporized="">
        <emissions CO_abs="58084.645143" CO2_abs="2134488.636202" HC_abs="313.719052" PMx_abs="40.907948" NOx_abs="883.472551" fuel_abs="680816.891580" electricity_abs="0"/>
    </tripinfo>
    <tripinfo id="127" depart="18240.00" departLane="-204967525_0" departPos="5.10" departSpeed="0.00" departDelay="0.00" arrival="18929.00" arrivalLane="-204967525_1" arrivalPos="146.26" arrivalSpeed="10.89" duration="689.00" routeLength="5247.72" waitingTime="108.00" waitingCount="10" stopTime="20.00" timeLoss="203.47" rerouteNo="1" devices="vehroute_127 tripinfo_127 emissions_127" vType="vecType" speedFactor="1.01" vaporized="">
        <emissions CO_abs="39221.812217" CO2_abs="1620824.111119" HC_abs="215.901123" PMx_abs="26.895340" NOx_abs="652.538713" fuel_abs="516979.421046" electricity_abs="0"/>
    </tripinfo>
    <tripinfo id="135" depart="18360.00" departLane="90077241_0" departPos="5.10" departSpeed="0.00" departDelay="0.00" arrival="18929.00" arrivalLane="90077241_0" arrivalPos="3225.35" arrivalSpeed="28.40" duration="569.00" routeLength="11126.88" waitingTime="66.00" waitingCount="4" stopTime="20.00" timeLoss="115.94" rerouteNo="1" devices="vehroute_135 tripinfo_135 emissions_135" vType="vecType" speedFactor="1.02" vaporized="">
        <emissions CO_abs="46848.832512" CO2_abs="2655284.495224" HC_abs="278.131210" PMx_abs="56.919577" NOx_abs="1015.243270" fuel_abs="846916.360993" electricity_abs="0"/>
    </tripinfo>
    <tripinfo id="132" depart="18300.00" departLane="142972028#1_0" departPos="5.10" departSpeed="0.00" departDelay="0.00" arrival="18932.00" arrivalLane="142972028#1_0" arrivalPos="161.20" arrivalSpeed="12.77" duration="632.00" routeLength="5328.48" waitingTime="150.00" waitingCount="6" stopTime="20.00" timeLoss="225.96" rerouteNo="4" devices="vehroute_132 tripinfo_132 emissions_132" vType="vecType" speedFactor="1.23" vaporized="">
        <emissions CO_abs="40709.986268" CO2_abs="1670594.045984" HC_abs="221.986614" PMx_abs="29.265515" NOx_abs="673.215364" fuel_abs="532852.847545" electricity_abs="0"/>
    </tripinfo>
    <tripinfo id="53" depart="18060.00" departLane="-27029200#2_0" departPos="5.10" departSpeed="0.00" departDelay="0.00" arrival="18937.00" arrivalLane="-27029200#2_0" arrivalPos="66.62" arrivalSpeed="11.31" duration="877.00" routeLength="6523.13" waitingTime="240.00" waitingCount="13" stopTime="20.00" timeLoss="374.71" rerouteNo="2" devices="vehroute_53 tripinfo_53 emissions_53" vType="vecType" speedFactor="1.10" vaporized="">
        <emissions CO_abs="68986.018226" CO2_abs="2469215.049028" HC_abs="370.989861" PMx_abs="46.787234" NOx_abs="1022.198933" fuel_abs="787582.767844" electricity_abs="0"/>
    </tripinfo>
    <tripinfo id="24" depart="18003.00" departLane="123867455_0" departPos="5.10" departSpeed="0.00" departDelay="3.00" arrival="18949.00" arrivalLane="123867455_0" arrivalPos="904.85" arrivalSpeed="22.90" duration="946.00" routeLength="6219.34" waitingTime="294.00" waitingCount="12" stopTime="20.00" timeLoss="408.87" rerouteNo="2" devices="vehroute_24 tripinfo_24 emissions_24" vType="vecType" speedFactor="0.83" vaporized="">
        <emissions CO_abs="80744.295173" CO2_abs="2490743.051776" HC_abs="424.658035" PMx_abs="48.406218" NOx_abs="1027.770316" fuel_abs="794455.599246" electricity_abs="0"/>
    </tripinfo>
    <tripinfo id="114" depart="18240.00" departLane="-254758120#3_0" departPos="5.10" departSpeed="0.00" departDelay="0.00" arrival="18950.00" arrivalLane="-254758120#3_0" arrivalPos="147.41" arrivalSpeed="12.12" duration="710.00" routeLength="4535.34" waitingTime="261.00" waitingCount="9" stopTime="20.00" timeLoss="344.47" rerouteNo="17" devices="vehroute_114 tripinfo_114 emissions_114" vType="vecType" speedFactor="1.18" vaporized="">
        <emissions CO_abs="60586.223978" CO2_abs="1889322.959599" HC_abs="318.690715" PMx_abs="36.027871" NOx_abs="785.886194" fuel_abs="602624.381196" electricity_abs="0"/>
    </tripinfo>
    <tripinfo id="105" depart="18183.00" departLane="8915254_0" departPos="5.10" departSpeed="0.00" departDelay="3.00" arrival="18953.00" arrivalLane="8915254_0" arrivalPos="317.12" arrivalSpeed="23.17" duration="770.00" routeLength="5891.38" waitingTime="221.00" waitingCount="11" stopTime="20.00" timeLoss="337.23" rerouteNo="3" devices="vehroute_105 tripinfo_105 emissions_105" vType="vecType" speedFactor="1.07" vaporized="">
        <emissions CO_abs="62673.528143" CO2_abs="2247243.137503" HC_abs="337.650589" PMx_abs="43.621704" NOx_abs="932.408698" fuel_abs="716781.513864" electricity_abs="0"/>
    </tripinfo>
    <tripinfo id="40" depart="18000.00" departLane="-206679802#4_0" departPos="5.10" departSpeed="0.00" departDelay="0.00" arrival="18955.00" arrivalLane="-206679802#4_0" arrivalPos="292.11" arrivalSpeed="10.27" duration="955.00" routeLength="6691.70" waitingTime="243.00" waitingCount="9" stopTime="20.00" timeLoss="354.10" rerouteNo="7" devices="vehroute_40 tripinfo_40 emissions_40" vType="vecType" speedFactor="1.03" vaporized="">
        <emissions CO_abs="66722.855825" CO2_abs="2377888.575739" HC_abs="358.834336" PMx_abs="42.678309" NOx_abs="977.936685" fuel_abs="758455.549334" electricity_abs="0"/>
    </tripinfo>
    <tripinfo id="3" depart="18000.00" departLane="-133781749_0" departPos="5.10" departSpeed="0.00" departDelay="0.00" arrival="18958.00" arrivalLane="-133781749_0" arrivalPos="138.68" arrivalSpeed="11.21" duration="958.00" routeLength="7501.04" waitingTime="244.00" waitingCount="14" stopTime="20.00" timeLoss="369.62" rerouteNo="1" devices="vehroute_3 tripinfo_3 emissions_3" vType="vecType" speedFactor="1.08" vaporized="">
        <emissions CO_abs="69997.063666" CO2_abs="2622625.579120" HC_abs="379.367039" PMx_abs="48.697531" NOx_abs="1077.102228" fuel_abs="836513.967405" electricity_abs="0"/>
    </tripinfo>