<?xml version="1.0" encoding="UTF-8"?>

<!-- generated on 2023-01-09 09:23:04 by Eclipse SUMO sumo Version 1.14.1
<configuration xmlns:xsi="http://www.w3.org/2001/XMLSchema-instance" xsi:noNamespaceSchemaLocation="http://sumo.dlr.de/xsd/sumoConfiguration.xsd">

    <input>
        <net-file value="./strategia1_config/../san_francisco.net.xml"/>
        <route-files value="./strategia1_config/../san_francisco.rou.xml"/>
        <additional-files value="./strategia1_config/../san_francisco.poly.xml,./strategia1_config/../parking_capacity_100%25/off_parking_100%25.add.xml,./strategia1_config/../parking_capacity_100%25/on_parking_100%25.add.xml"/>
    </input>

    <output>
        <emission-output value="./strategia1_config/../output/strategia1/100%25/emissions.xml"/>
        <tripinfo-output value="./strategia1_config/../output/strategia1/100%25/tripinfo.xml"/>
        <vehroute-output value="./strategia1_config/../output/strategia1/100%25/vehroute.xml"/>
        <stop-output value="./strategia1_config/../output/strategia1/100%25/stops.xml"/>
        <collision-output value="./strategia1_config/../output/strategia1/100%25/collision.xml"/>
        <statistic-output value="./strategia1_config/../output/strategia1/100%25/statistic.xml"/>
    </output>

    <time>
        <step-length value="1"/>
    </time>

    <processing>
        <ignore-route-errors value="false"/>
    </processing>

    <report>
        <verbose value="true"/>
        <xml-validation value="never"/>
    </report>

    <traci_server>
        <remote-port value="54120"/>
    </traci_server>

    <gui_only>
        <gui-settings-file value="./strategia1_config/../gui-settings.cfg"/>
        <start value="true"/>
    </gui_only>

</configuration>
-->

<tripinfos xmlns:xsi="http://www.w3.org/2001/XMLSchema-instance" xsi:noNamespaceSchemaLocation="http://sumo.dlr.de/xsd/tripinfo_file.xsd">
    <tripinfo id="116" depart="18240.00" departLane="48211196#5_0" departPos="5.10" departSpeed="0.00" departDelay="0.00" arrival="18835.00" arrivalLane="-8916792_0" arrivalPos="615.11" arrivalSpeed="11.99" duration="595.00" routeLength="5413.78" waitingTime="95.00" waitingCount="4" stopTime="0.00" timeLoss="161.51" rerouteNo="0" devices="vehroute_116 tripinfo_116 emissions_116" vType="vecType" speedFactor="1.12" vaporized="">
        <emissions CO_abs="31835.192348" CO2_abs="1536958.151034" HC_abs="179.700750" PMx_abs="25.362436" NOx_abs="613.091123" fuel_abs="490226.506021" electricity_abs="0"/>
    </tripinfo>
    <tripinfo id="64" depart="18060.00" departLane="28319343#2_0" departPos="5.10" departSpeed="0.00" departDelay="0.00" arrival="18871.00" arrivalLane="28319343#2_0" arrivalPos="90.58" arrivalSpeed="10.15" duration="811.00" routeLength="9974.14" waitingTime="218.00" waitingCount="8" stopTime="0.00" timeLoss="285.53" rerouteNo="1" devices="vehroute_64 tripinfo_64 emissions_64" vType="vecType" speedFactor="0.94" vaporized="">
        <emissions CO_abs="65055.481157" CO2_abs="2765160.374088" HC_abs="361.309529" PMx_abs="54.908488" NOx_abs="1089.153428" fuel_abs="881972.388571" electricity_abs="0"/>
    </tripinfo>
    <tripinfo id="71" depart="18120.00" departLane="52432938#0_0" departPos="5.10" departSpeed="0.00" departDelay="0.00" arrival="19059.00" arrivalLane="52432938#0_1" arrivalPos="69.49" arrivalSpeed="10.53" duration="939.00" routeLength="10567.87" waitingTime="326.00" waitingCount="9" stopTime="0.00" timeLoss="412.68" rerouteNo="1" devices="vehroute_71 tripinfo_71 emissions_71" vType="vecType" speedFactor="0.97" vaporized="">
        <emissions CO_abs="88516.046397" CO2_abs="3297063.213823" HC_abs="481.189732" PMx_abs="68.245075" NOx_abs="1322.808181" fuel_abs="1051630.968945" electricity_abs="0"/>
    </tripinfo>
    <tripinfo id="94" depart="18120.00" departLane="254758124#0_0" departPos="5.10" departSpeed="0.00" departDelay="0.00" arrival="19248.00" arrivalLane="254758124#0_1" arrivalPos="106.41" arrivalSpeed="11.60" duration="1128.00" routeLength="12426.75" waitingTime="375.00" waitingCount="14" stopTime="0.00" timeLoss="505.31" rerouteNo="1" devices="vehroute_94 tripinfo_94 emissions_94" vType="vecType" speedFactor="1.09" vaporized="">
        <emissions CO_abs="112259.445299" CO2_abs="4071247.935262" HC_abs="609.461511" PMx_abs="87.364526" NOx_abs="1654.999111" fuel_abs="1298563.524568" electricity_abs="0"/>
    </tripinfo>
    <tripinfo id="228" depart="19080.00" departLane="144489137#3_0" departPos="5.10" departSpeed="0.00" departDelay="0.00" arrival="19391.00" arrivalLane="254756525#26_0" arrivalPos="121.81" arrivalSpeed="9.62" duration="311.00" routeLength="1438.30" waitingTime="129.00" waitingCount="5" stopTime="0.00" timeLoss="164.03" rerouteNo="0" devices="vehroute_228 tripinfo_228 emissions_228" vType="vecType" speedFactor="0.88" vaporized="">
        <emissions CO_abs="29798.200586" CO2_abs="758630.989737" HC_abs="153.247884" PMx_abs="15.006871" NOx_abs="322.712673" fuel_abs="241977.960841" electricity_abs="0"/>
    </tripinfo>
    <tripinfo id="241" depart="19440.00" departLane="288065247#6_0" departPos="5.10" departSpeed="0.00" departDelay="0.00" arrival="19566.00" arrivalLane="254756525#26_0" arrivalPos="121.81" arrivalSpeed="10.52" duration="126.00" routeLength="910.21" waitingTime="31.00" waitingCount="1" stopTime="0.00" timeLoss="42.16" rerouteNo="0" devices="vehroute_241 tripinfo_241 emissions_241" vType="vecType" speedFactor="0.97" vaporized="">
        <emissions CO_abs="8505.991766" CO2_abs="303590.310940" HC_abs="45.741839" PMx_abs="5.335131" NOx_abs="124.378270" fuel_abs="96833.797378" electricity_abs="0"/>
    </tripinfo>
    <tripinfo id="177" depart="18600.00" departLane="-30029708#0_0" departPos="5.10" departSpeed="0.00" departDelay="0.00" arrival="19749.00" arrivalLane="-30029708#0_1" arrivalPos="94.58" arrivalSpeed="11.06" duration="1149.00" routeLength="13187.08" waitingTime="319.00" waitingCount="14" stopTime="0.00" timeLoss="436.66" rerouteNo="1" devices="vehroute_177 tripinfo_177 emissions_177" vType="vecType" speedFactor="1.09" vaporized="">
        <emissions CO_abs="101492.823228" CO2_abs="4032979.536853" HC_abs="558.579638" PMx_abs="82.973249" NOx_abs="1612.091000" fuel_abs="1286355.529418" electricity_abs="0"/>
    </tripinfo>
    <tripinfo id="16" depart="18006.00" departLane="90077241_0" departPos="5.10" departSpeed="0.00" departDelay="6.00" arrival="19769.00" arrivalLane="90077241_0" arrivalPos="3225.35" arrivalSpeed="24.56" duration="1763.00" routeLength="11625.26" waitingTime="75.00" waitingCount="2" stopTime="1105.00" timeLoss="134.05" rerouteNo="2" devices="vehroute_16 tripinfo_16 emissions_16" vType="vecType" speedFactor="0.88" vaporized="">
        <emissions CO_abs="40208.456109" CO2_abs="2594959.273617" HC_abs="242.544702" PMx_abs="49.831552" NOx_abs="982.334001" fuel_abs="827675.394301" electricity_abs="0"/>
    </tripinfo>
    <tripinfo id="2" depart="18000.00" departLane="142972028#1_0" departPos="5.10" departSpeed="0.00" departDelay="0.00" arrival="19938.00" arrivalLane="142972028#1_0" arrivalPos="161.20" arrivalSpeed="10.96" duration="1938.00" routeLength="6951.71" waitingTime="172.00" waitingCount="8" stopTime="1102.00" timeLoss="278.81" rerouteNo="3" devices="vehroute_2 tripinfo_2 emissions_2" vType="vecType" speedFactor="1.01" vaporized="">
        <emissions CO_abs="54755.026527" CO2_abs="2230969.614281" HC_abs="300.734154" PMx_abs="39.144278" NOx_abs="901.953218" fuel_abs="711590.705272" electricity_abs="0"/>
    </tripinfo>
    <tripinfo id="229" depart="19140.00" departLane="148847001#0_0" departPos="5.10" departSpeed="0.00" departDelay="0.00" arrival="20056.00" arrivalLane="52432936#0_0" arrivalPos="124.42" arrivalSpeed="8.66" duration="916.00" routeLength="6707.72" waitingTime="226.00" waitingCount="6" stopTime="0.00" timeLoss="309.00" rerouteNo="6" devices="vehroute_229 tripinfo_229 emissions_229" vType="vecType" speedFactor="0.83" vaporized="">
        <emissions CO_abs="63933.534387" CO2_abs="2212687.972808" HC_abs="341.615101" PMx_abs="39.421111" NOx_abs="901.026274" fuel_abs="705764.642280" electricity_abs="0"/>
    </tripinfo>
    <tripinfo id="243" depart="19440.00" departLane="-48211196#4_0" departPos="5.10" departSpeed="0.00" departDelay="0.00" arrival="20173.00" arrivalLane="133755930#1_0" arrivalPos="16.00" arrivalSpeed="10.07" duration="733.00" routeLength="4088.09" waitingTime="283.00" waitingCount="10" stopTime="0.00" timeLoss="362.83" rerouteNo="0" devices="vehroute_243 tripinfo_243 emissions_243" vType="vecType" speedFactor="0.99" vaporized="">
        <emissions CO_abs="65070.467363" CO2_abs="1835766.685154" HC_abs="338.790792" PMx_abs="35.004346" NOx_abs="769.656900" fuel_abs="585545.543479" electricity_abs="0"/>
    </tripinfo>
    <tripinfo id="302" depart="19800.00" departLane="-254758139#0_0" departPos="5.10" departSpeed="0.00" departDelay="0.00" arrival="20229.00" arrivalLane="-254758139#0_0" arrivalPos="68.19" arrivalSpeed="9.98" duration="429.00" routeLength="9394.24" waitingTime="12.00" waitingCount="1" stopTime="0.00" timeLoss="44.86" rerouteNo="1" devices="vehroute_302 tripinfo_302 emissions_302" vType="vecType" speedFactor="0.94" vaporized="">
        <emissions CO_abs="24720.884121" CO2_abs="1974516.125056" HC_abs="159.302368" PMx_abs="39.245387" NOx_abs="738.046365" fuel_abs="629778.387625" electricity_abs="0"/>
    </tripinfo>
    <tripinfo id="208" depart="18960.00" departLane="-144346316#5_0" departPos="5.10" departSpeed="0.00" departDelay="0.00" arrival="20360.00" arrivalLane="-144346316#5_0" arrivalPos="145.14" arrivalSpeed="10.49" duration="1400.00" routeLength="13848.79" waitingTime="498.00" waitingCount="16" stopTime="0.00" timeLoss="635.36" rerouteNo="5" devices="vehroute_208 tripinfo_208 emissions_208" vType="vecType" speedFactor="1.05" vaporized="">
        <emissions CO_abs="132260.894974" CO2_abs="4598138.126699" HC_abs="712.195363" PMx_abs="95.312888" NOx_abs="1857.572508" fuel_abs="1466626.658981" electricity_abs="0"/>
    </tripinfo>
    <tripinfo id="313" depart="19920.00" departLane="-111089307#4_0" departPos="5.10" departSpeed="0.00" departDelay="0.00" arrival="20414.00" arrivalLane="52432936#0_0" arrivalPos="124.42" arrivalSpeed="9.90" duration="494.00" routeLength="2900.94" waitingTime="163.00" waitingCount="4" stopTime="0.00" timeLoss="209.19" rerouteNo="0" devices="vehroute_313 tripinfo_313 emissions_313" vType="vecType" speedFactor="0.91" vaporized="">
        <emissions CO_abs="39788.702286" CO2_abs="1183084.506264" HC_abs="208.432025" PMx_abs="21.596666" NOx_abs="490.872070" fuel_abs="377362.325777" electricity_abs="0"/>
    </tripinfo>
    <tripinfo id="312" depart="19860.00" departLane="8922307_0" departPos="5.10" departSpeed="0.00" departDelay="0.00" arrival="20478.00" arrivalLane="254756525#26_0" arrivalPos="121.81" arrivalSpeed="8.31" duration="618.00" routeLength="3140.72" waitingTime="220.00" waitingCount="6" stopTime="0.00" timeLoss="276.55" rerouteNo="0" devices="vehroute_312 tripinfo_312 emissions_312" vType="vecType" speedFactor="0.82" vaporized="">
        <emissions CO_abs="52427.991044" CO2_abs="1405331.598651" HC_abs="271.063900" PMx_abs="26.380265" NOx_abs="589.363287" fuel_abs="448253.658773" electricity_abs="0"/>
    </tripinfo>
    <tripinfo id="322" depart="20040.00" departLane="99231460_0" departPos="5.10" departSpeed="0.00" departDelay="0.00" arrival="20524.00" arrivalLane="-8916792_0" arrivalPos="615.11" arrivalSpeed="10.03" duration="484.00" routeLength="3547.42" waitingTime="118.00" waitingCount="3" stopTime="0.00" timeLoss="162.44" rerouteNo="0" devices="vehroute_322 tripinfo_322 emissions_322" vType="vecType" speedFactor="0.99" vaporized="">
        <emissions CO_abs="31494.402593" CO2_abs="1145188.145710" HC_abs="169.722736" PMx_abs="19.318089" NOx_abs="462.888112" fuel_abs="365272.232064" electricity_abs="0"/>
    </tripinfo>
    <tripinfo id="318" depart="19980.00" departLane="-88572970_0" departPos="5.10" departSpeed="0.00" departDelay="0.00" arrival="20531.00" arrivalLane="-88572970_1" arrivalPos="108.68" arrivalSpeed="12.30" duration="551.00" routeLength="9249.43" waitingTime="111.00" waitingCount="6" stopTime="0.00" timeLoss="167.59" rerouteNo="1" devices="vehroute_318 tripinfo_318 emissions_318" vType="vecType" speedFactor="1.12" vaporized="">
        <emissions CO_abs="54163.531100" CO2_abs="2484903.523529" HC_abs="308.050624" PMx_abs="54.877121" NOx_abs="970.248210" fuel_abs="792576.654032" electricity_abs="0"/>
    </tripinfo>
    <tripinfo id="211" depart="18969.00" departLane="90077241_0" departPos="5.10" departSpeed="0.00" departDelay="9.00" arrival="20540.00" arrivalLane="90077241_0" arrivalPos="3225.35" arrivalSpeed="29.51" duration="1571.00" routeLength="11565.45" waitingTime="64.00" waitingCount="3" stopTime="1002.00" timeLoss="112.52" rerouteNo="2" devices="vehroute_211 tripinfo_211 emissions_211" vType="vecType" speedFactor="1.06" vaporized="">
        <emissions CO_abs="50528.039474" CO2_abs="2812841.891227" HC_abs="299.943413" PMx_abs="61.315393" NOx_abs="1079.018707" fuel_abs="897170.027124" electricity_abs="0"/>
    </tripinfo>
    <tripinfo id="174" depart="18552.00" departLane="90077241_0" departPos="5.10" departSpeed="0.00" departDelay="12.00" arrival="20556.00" arrivalLane="90077241_0" arrivalPos="3225.35" arrivalSpeed="28.01" duration="2004.00" routeLength="13531.94" waitingTime="172.00" waitingCount="7" stopTime="1035.00" timeLoss="270.13" rerouteNo="3" devices="vehroute_174 tripinfo_174 emissions_174" vType="vecType" speedFactor="0.99" vaporized="">
        <emissions CO_abs="76625.467730" CO2_abs="3588810.207661" HC_abs="435.245366" PMx_abs="73.122048" NOx_abs="1404.270857" fuel_abs="1144677.661242" electricity_abs="0"/>
    </tripinfo>
    <tripinfo id="18" depart="18000.00" departLane="8916792_0" departPos="5.10" departSpeed="0.00" departDelay="0.00" arrival="20618.00" arrivalLane="8916792_0" arrivalPos="615.11" arrivalSpeed="9.59" duration="2618.00" routeLength="8097.88" waitingTime="357.00" waitingCount="13" stopTime="1372.00" timeLoss="471.78" rerouteNo="3" devices="vehroute_18 tripinfo_18 emissions_18" vType="vecType" speedFactor="0.94" vaporized="">
        <emissions CO_abs="89347.523384" CO2_abs="2867968.072470" HC_abs="472.589076" PMx_abs="49.376557" NOx_abs="1168.062504" fuel_abs="914779.974684" electricity_abs="0"/>
    </tripinfo>
    <tripinfo id="155" depart="18480.00" departLane="-133755930#1_0" departPos="5.10" departSpeed="0.00" departDelay="0.00" arrival="20620.00" arrivalLane="-133755930#1_1" arrivalPos="16.00" arrivalSpeed="13.19" duration="2140.00" routeLength="4091.91" waitingTime="309.00" waitingCount="8" stopTime="1436.00" timeLoss="397.22" rerouteNo="2" devices="vehroute_155 tripinfo_155 emissions_155" vType="vecType" speedFactor="1.19" vaporized="">
        <emissions CO_abs="68806.926246" CO2_abs="1988311.277625" HC_abs="358.530573" PMx_abs="39.706198" NOx_abs="840.578288" fuel_abs="634199.006222" electricity_abs="0"/>
    </tripinfo>
    <tripinfo id="1" depart="18000.00" departLane="31129765_0" departPos="5.10" departSpeed="0.00" departDelay="0.00" arrival="20635.00" arrivalLane="31129765_0" arrivalPos="639.51" arrivalSpeed="19.85" duration="2635.00" routeLength="4341.32" waitingTime="0.00" waitingCount="0" stopTime="2332.00" timeLoss="34.58" rerouteNo="2" devices="vehroute_1 tripinfo_1 emissions_1" vType="vecType" speedFactor="0.94" vaporized="">
        <emissions CO_abs="13466.033120" CO2_abs="1062904.897774" HC_abs="85.438757" PMx_abs="18.564387" NOx_abs="411.877172" fuel_abs="339017.521797" electricity_abs="0"/>
    </tripinfo>
    <tripinfo id="23" depart="18000.00" departLane="133733582#2_0" departPos="5.10" departSpeed="0.00" departDelay="0.00" arrival="20663.00" arrivalLane="133733582#2_0" arrivalPos="149.99" arrivalSpeed="9.78" duration="2663.00" routeLength="6926.78" waitingTime="230.00" waitingCount="11" stopTime="1691.00" timeLoss="338.15" rerouteNo="2" devices="vehroute_23 tripinfo_23 emissions_23" vType="vecType" speedFactor="0.89" vaporized="">
        <emissions CO_abs="67928.578731" CO2_abs="2358247.526856" HC_abs="363.535381" PMx_abs="42.039599" NOx_abs="965.787307" fuel_abs="752192.225932" electricity_abs="0"/>
    </tripinfo>
    <tripinfo id="311" depart="19860.00" departLane="204884387#0_0" departPos="5.10" departSpeed="0.00" departDelay="0.00" arrival="20663.00" arrivalLane="204884387#0_0" arrivalPos="132.79" arrivalSpeed="9.43" duration="803.00" routeLength="10123.88" waitingTime="188.00" waitingCount="6" stopTime="0.00" timeLoss="256.14" rerouteNo="1" devices="vehroute_311 tripinfo_311 emissions_311" vType="vecType" speedFactor="0.92" vaporized="">
        <emissions CO_abs="60154.449372" CO2_abs="2717147.959803" HC_abs="337.568679" PMx_abs="52.996781" NOx_abs="1066.486782" fuel_abs="866656.866065" electricity_abs="0"/>
    </tripinfo>
    <tripinfo id="96" depart="18180.00" departLane="90077241_0" departPos="5.10" departSpeed="0.00" departDelay="0.00" arrival="20686.00" arrivalLane="90077241_0" arrivalPos="3225.35" arrivalSpeed="28.48" duration="2506.00" routeLength="15031.51" waitingTime="231.00" waitingCount="9" stopTime="1441.00" timeLoss="330.10" rerouteNo="5" devices="vehroute_96 tripinfo_96 emissions_96" vType="vecType" speedFactor="1.01" vaporized="">
        <emissions CO_abs="86319.683700" CO2_abs="4013874.756231" HC_abs="489.904467" PMx_abs="82.288026" NOx_abs="1574.997702" fuel_abs="1280254.948734" electricity_abs="0"/>
    </tripinfo>
    <tripinfo id="6" depart="18000.00" departLane="225806031#0_0" departPos="5.10" departSpeed="0.00" departDelay="0.00" arrival="20695.00" arrivalLane="225806031#0_0" arrivalPos="142.16" arrivalSpeed="11.38" duration="2695.00" routeLength="6532.67" waitingTime="441.00" waitingCount="16" stopTime="1569.00" timeLoss="568.72" rerouteNo="2" devices="vehroute_6 tripinfo_6 emissions_6" vType="vecType" speedFactor="1.05" vaporized="">
        <emissions CO_abs="100014.150319" CO2_abs="2873855.555484" HC_abs="521.844671" PMx_abs="55.507379" NOx_abs="1206.901574" fuel_abs="916657.909571" electricity_abs="0"/>
    </tripinfo>
    <tripinfo id="326" depart="20100.00" departLane="88466052#1_0" departPos="5.10" departSpeed="0.00" departDelay="0.00" arrival="20812.00" arrivalLane="88466052#1_0" arrivalPos="202.96" arrivalSpeed="10.12" duration="712.00" routeLength="9458.72" waitingTime="170.00" waitingCount="8" stopTime="0.00" timeLoss="236.40" rerouteNo="1" devices="vehroute_326 tripinfo_326 emissions_326" vType="vecType" speedFactor="0.94" vaporized="">
        <emissions CO_abs="56413.319324" CO2_abs="2514260.179762" HC_abs="316.241911" PMx_abs="50.510562" NOx_abs="986.932746" fuel_abs="801943.589158" electricity_abs="0"/>
    </tripinfo>
    <tripinfo id="332" depart="20400.00" departLane="-242896157#0_0" departPos="5.10" departSpeed="0.00" departDelay="0.00" arrival="20891.00" arrivalLane="-242896157#0_1" arrivalPos="109.29" arrivalSpeed="12.35" duration="491.00" routeLength="8698.52" waitingTime="106.00" waitingCount="5" stopTime="0.00" timeLoss="150.43" rerouteNo="1" devices="vehroute_332 tripinfo_332 emissions_332" vType="vecType" speedFactor="1.11" vaporized="">
        <emissions CO_abs="52223.732877" CO2_abs="2354826.229854" HC_abs="296.324905" PMx_abs="53.567059" NOx_abs="934.175328" fuel_abs="751086.107466" electricity_abs="0"/>
    </tripinfo>
    <tripinfo id="250" depart="19443.00" departLane="-24335483#9_0" departPos="5.10" departSpeed="0.00" departDelay="3.00" arrival="21001.00" arrivalLane="-24335483#9_0" arrivalPos="292.66" arrivalSpeed="10.18" duration="1558.00" routeLength="14375.42" waitingTime="461.00" waitingCount="15" stopTime="0.00" timeLoss="604.75" rerouteNo="4" devices="vehroute_250 tripinfo_250 emissions_250" vType="vecType" speedFactor="0.93" vaporized="">
        <emissions CO_abs="123536.828260" CO2_abs="4530557.436602" HC_abs="667.677780" PMx_abs="86.469208" NOx_abs="1815.128040" fuel_abs="1445072.180155" electricity_abs="0"/>
    </tripinfo>
    <tripinfo id="9" depart="18000.00" departLane="23959829#0_0" departPos="5.10" departSpeed="0.00" departDelay="0.00" arrival="21035.00" arrivalLane="23959829#0_0" arrivalPos="45.86" arrivalSpeed="9.17" duration="3035.00" routeLength="6745.88" waitingTime="204.00" waitingCount="9" stopTime="2080.00" timeLoss="316.05" rerouteNo="3" devices="vehroute_9 tripinfo_9 emissions_9" vType="vecType" speedFactor="0.86" vaporized="">
        <emissions CO_abs="64821.341856" CO2_abs="2327889.592666" HC_abs="348.573527" PMx_abs="40.197646" NOx_abs="946.172954" fuel_abs="742509.198098" electricity_abs="0"/>
    </tripinfo>
    <tripinfo id="183" depart="18600.00" departLane="-23883761_0" departPos="5.10" departSpeed="0.00" departDelay="0.00" arrival="21058.00" arrivalLane="-23883761_0" arrivalPos="197.88" arrivalSpeed="9.64" duration="2458.00" routeLength="6412.42" waitingTime="299.00" waitingCount="15" stopTime="1456.00" timeLoss="413.64" rerouteNo="2" devices="vehroute_183 tripinfo_183 emissions_183" vType="vecType" speedFactor="0.98" vaporized="">
        <emissions CO_abs="76119.463499" CO2_abs="2398284.428578" HC_abs="401.968914" PMx_abs="43.517850" NOx_abs="991.001618" fuel_abs="764965.967742" electricity_abs="0"/>
    </tripinfo>
    <tripinfo id="29" depart="18000.00" departLane="-35977367#2_0" departPos="5.10" departSpeed="0.00" departDelay="0.00" arrival="21060.00" arrivalLane="-35977367#2_0" arrivalPos="431.73" arrivalSpeed="10.29" duration="3060.00" routeLength="6273.32" waitingTime="201.00" waitingCount="8" stopTime="2150.00" timeLoss="306.70" rerouteNo="4" devices="vehroute_29 tripinfo_29 emissions_29" vType="vecType" speedFactor="0.93" vaporized="">
        <emissions CO_abs="60956.330082" CO2_abs="2183411.065684" HC_abs="327.719498" PMx_abs="37.127727" NOx_abs="887.801917" fuel_abs="696426.520864" electricity_abs="0"/>
    </tripinfo>
    <tripinfo id="103" depart="18183.00" departLane="224384035#0_0" departPos="5.10" departSpeed="0.00" departDelay="3.00" arrival="21084.00" arrivalLane="224384035#0_0" arrivalPos="123.84" arrivalSpeed="10.55" duration="2901.00" routeLength="7193.96" waitingTime="478.00" waitingCount="20" stopTime="1597.00" timeLoss="632.40" rerouteNo="3" devices="vehroute_103 tripinfo_103 emissions_103" vType="vecType" speedFactor="0.95" vaporized="">
        <emissions CO_abs="113803.918090" CO2_abs="3215213.943279" HC_abs="592.569772" PMx_abs="61.576451" NOx_abs="1351.486333" fuel_abs="1025540.529783" electricity_abs="0"/>
    </tripinfo>
    <tripinfo id="41" depart="18003.00" departLane="144489137#0_0" departPos="5.10" departSpeed="0.00" departDelay="3.00" arrival="21134.00" arrivalLane="144489137#0_0" arrivalPos="135.49" arrivalSpeed="9.74" duration="3131.00" routeLength="5119.82" waitingTime="350.00" waitingCount="14" stopTime="2203.00" timeLoss="452.75" rerouteNo="2" devices="vehroute_41 tripinfo_41 emissions_41" vType="vecType" speedFactor="0.96" vaporized="">
        <emissions CO_abs="80563.126456" CO2_abs="2255462.062045" HC_abs="418.935098" PMx_abs="42.904922" NOx_abs="945.518681" fuel_abs="719414.183619" electricity_abs="0"/>
    </tripinfo>
    <tripinfo id="118" depart="18240.00" departLane="8915254_0" departPos="5.10" departSpeed="0.00" departDelay="0.00" arrival="21157.00" arrivalLane="8915254_0" arrivalPos="317.12" arrivalSpeed="22.53" duration="2917.00" routeLength="9727.70" waitingTime="388.00" waitingCount="13" stopTime="1622.00" timeLoss="533.53" rerouteNo="2" devices="vehroute_118 tripinfo_118 emissions_118" vType="vecType" speedFactor="1.03" vaporized="">
        <emissions CO_abs="100793.820158" CO2_abs="3610435.994175" HC_abs="542.673836" PMx_abs="66.342937" NOx_abs="1479.495421" fuel_abs="1151590.047451" electricity_abs="0"/>
    </tripinfo>
    <tripinfo id="88" depart="18123.00" departLane="31129765_0" departPos="5.10" departSpeed="0.00" departDelay="3.00" arrival="21177.00" arrivalLane="31129765_0" arrivalPos="639.51" arrivalSpeed="22.27" duration="3054.00" routeLength="6946.37" waitingTime="292.00" waitingCount="10" stopTime="2218.00" timeLoss="401.09" rerouteNo="2" devices="vehroute_88 tripinfo_88 emissions_88" vType="vecType" speedFactor="1.01" vaporized="">
        <emissions CO_abs="76988.025221" CO2_abs="2639635.389891" HC_abs="412.291433" PMx_abs="53.017666" NOx_abs="1088.384724" fuel_abs="841940.544475" electricity_abs="0"/>
    </tripinfo>
    <tripinfo id="13" depart="18003.00" departLane="90077241_0" departPos="5.10" departSpeed="0.00" departDelay="3.00" arrival="21179.00" arrivalLane="90077241_0" arrivalPos="3225.35" arrivalSpeed="31.92" duration="3176.00" routeLength="12752.38" waitingTime="166.00" waitingCount="6" stopTime="2411.00" timeLoss="244.86" rerouteNo="2" devices="vehroute_13 tripinfo_13 emissions_13" vType="vecType" speedFactor="1.12" vaporized="">
        <emissions CO_abs="79659.659204" CO2_abs="3542722.854061" HC_abs="450.329251" PMx_abs="79.514470" NOx_abs="1401.659536" fuel_abs="1129974.632072" electricity_abs="0"/>
    </tripinfo>
    <tripinfo id="126" depart="18240.00" departLane="-133755930#1_0" departPos="5.10" departSpeed="0.00" departDelay="0.00" arrival="21264.00" arrivalLane="-133755930#1_1" arrivalPos="16.00" arrivalSpeed="10.68" duration="3024.00" routeLength="5354.68" waitingTime="343.00" waitingCount="11" stopTime="2120.00" timeLoss="426.63" rerouteNo="6" devices="vehroute_126 tripinfo_126 emissions_126" vType="vecType" speedFactor="1.00" vaporized="">
        <emissions CO_abs="76493.227162" CO2_abs="2219389.358618" HC_abs="399.553264" PMx_abs="41.283629" NOx_abs="922.127682" fuel_abs="707907.732906" electricity_abs="0"/>
    </tripinfo>
    <tripinfo id="212" depart="18963.00" departLane="-144346316#5_0" departPos="5.10" departSpeed="0.00" departDelay="3.00" arrival="21302.00" arrivalLane="-144346316#5_0" arrivalPos="145.14" arrivalSpeed="11.67" duration="2339.00" routeLength="7064.96" waitingTime="558.00" waitingCount="21" stopTime="1033.00" timeLoss="731.11" rerouteNo="4" devices="vehroute_212 tripinfo_212 emissions_212" vType="vecType" speedFactor="1.10" vaporized="">
        <emissions CO_abs="126248.724294" CO2_abs="3473187.821663" HC_abs="655.340337" PMx_abs="69.674032" NOx_abs="1475.929040" fuel_abs="1107824.013437" electricity_abs="0"/>
    </tripinfo>
    <tripinfo id="56" depart="18066.00" departLane="31129765_0" departPos="5.10" departSpeed="0.00" departDelay="6.00" arrival="21459.00" arrivalLane="31129765_0" arrivalPos="639.51" arrivalSpeed="19.40" duration="3393.00" routeLength="6622.27" waitingTime="228.00" waitingCount="6" stopTime="2634.00" timeLoss="305.08" rerouteNo="2" devices="vehroute_56 tripinfo_56 emissions_56" vType="vecType" speedFactor="0.90" vaporized="">
        <emissions CO_abs="61233.510213" CO2_abs="2246648.259919" HC_abs="330.553185" PMx_abs="42.741283" NOx_abs="912.898685" fuel_abs="716592.635625" electricity_abs="0"/>
    </tripinfo>
    <tripinfo id="293" depart="19740.00" departLane="-27570802#1_0" departPos="5.10" departSpeed="0.00" departDelay="0.00" arrival="21469.00" arrivalLane="-27570802#1_0" arrivalPos="269.14" arrivalSpeed="9.99" duration="1729.00" routeLength="15843.47" waitingTime="477.00" waitingCount="20" stopTime="0.00" timeLoss="651.23" rerouteNo="5" devices="vehroute_293 tripinfo_293 emissions_293" vType="vecType" speedFactor="0.94" vaporized="">
        <emissions CO_abs="133432.575890" CO2_abs="4959779.034572" HC_abs="723.336234" PMx_abs="94.525253" NOx_abs="1997.207275" fuel_abs="1581975.539184" electricity_abs="0"/>
    </tripinfo>
    <tripinfo id="33" depart="18000.00" departLane="144489137#0_0" departPos="5.10" departSpeed="0.00" departDelay="0.00" arrival="21481.00" arrivalLane="144489137#0_0" arrivalPos="135.49" arrivalSpeed="12.66" duration="3481.00" routeLength="3872.00" waitingTime="304.00" waitingCount="14" stopTime="2793.00" timeLoss="394.28" rerouteNo="2" devices="vehroute_33 tripinfo_33 emissions_33" vType="vecType" speedFactor="1.17" vaporized="">
        <emissions CO_abs="67620.437864" CO2_abs="1915033.735075" HC_abs="351.434936" PMx_abs="38.058989" NOx_abs="808.300402" fuel_abs="610827.232809" electricity_abs="0"/>
    </tripinfo>
    <tripinfo id="87" depart="18120.00" departLane="254396707#6_0" departPos="5.10" departSpeed="0.00" departDelay="0.00" arrival="21495.00" arrivalLane="254396707#6_0" arrivalPos="139.12" arrivalSpeed="11.64" duration="3375.00" routeLength="5948.26" waitingTime="614.00" waitingCount="22" stopTime="2110.00" timeLoss="756.59" rerouteNo="2" devices="vehroute_87 tripinfo_87 emissions_87" vType="vecType" speedFactor="1.04" vaporized="">
        <emissions CO_abs="131453.914281" CO2_abs="3336321.686649" HC_abs="676.065991" PMx_abs="68.023267" NOx_abs="1426.171660" fuel_abs="1064173.723507" electricity_abs="0"/>
    </tripinfo>
    <tripinfo id="342" depart="20880.00" departLane="-204884378#1_0" departPos="5.10" departSpeed="0.00" departDelay="0.00" arrival="21521.00" arrivalLane="-204884378#1_1" arrivalPos="41.26" arrivalSpeed="11.03" duration="641.00" routeLength="9230.93" waitingTime="165.00" waitingCount="6" stopTime="0.00" timeLoss="222.02" rerouteNo="1" devices="vehroute_342 tripinfo_342 emissions_342" vType="vecType" speedFactor="1.02" vaporized="">
        <emissions CO_abs="58093.110246" CO2_abs="2533639.960417" HC_abs="325.948063" PMx_abs="53.616220" NOx_abs="1004.494903" fuel_abs="808123.586154" electricity_abs="0"/>
    </tripinfo>
    <tripinfo id="187" depart="18660.00" departLane="-24335483#9_0" departPos="5.10" departSpeed="0.00" departDelay="0.00" arrival="21529.00" arrivalLane="-24335483#9_0" arrivalPos="292.66" arrivalSpeed="9.34" duration="2869.00" routeLength="4210.80" waitingTime="98.00" waitingCount="4" stopTime="2278.00" timeLoss="159.72" rerouteNo="3" devices="vehroute_187 tripinfo_187 emissions_187" vType="vecType" speedFactor="0.87" vaporized="">