<?xml version="1.0" encoding="UTF-8"?>

<!-- generated on 2023-01-05 10:13:53 by Eclipse SUMO sumo Version 1.14.1
<configuration xmlns:xsi="http://www.w3.org/2001/XMLSchema-instance" xsi:noNamespaceSchemaLocation="http://sumo.dlr.de/xsd/sumoConfiguration.xsd">

    <input>
        <net-file value="./strategia1_config/../san_francisco.net.xml"/>
        <route-files value="./strategia1_config/../san_francisco.rou.xml"/>
        <additional-files value="./strategia1_config/../san_francisco.poly.xml,./strategia1_config/../parking_capacity_100%25/off_parking_100%25.add.xml,./strategia1_config/../parking_capacity_100%25/on_parking_100%25.add.xml"/>
    </input>

    <output>
        <emission-output value="./strategia1_config/../output/strategia1/100%25/emissions.xml"/>
        <tripinfo-output value="./strategia1_config/../output/strategia1/100%25/tripinfo.xml"/>
        <vehroute-output value="./strategia1_config/../output/strategia1/100%25/vehroute.xml"/>
        <stop-output value="./strategia1_config/../output/strategia1/100%25/stops.xml"/>
        <collision-output value="./strategia1_config/../output/strategia1/100%25/collision.xml"/>
        <statistic-output value="./strategia1_config/../output/strategia1/100%25/statistic.xml"/>
    </output>

    <time>
        <step-length value="1"/>
    </time>

    <processing>
        <ignore-route-errors value="false"/>
    </processing>

    <report>
        <verbose value="true"/>
        <xml-validation value="never"/>
    </report>

    <traci_server>
        <remote-port value="55448"/>
    </traci_server>

    <gui_only>
        <gui-settings-file value="./strategia1_config/../gui-settings.cfg"/>
        <start value="true"/>
    </gui_only>

</configuration>
-->

<tripinfos xmlns:xsi="http://www.w3.org/2001/XMLSchema-instance" xsi:noNamespaceSchemaLocation="http://sumo.dlr.de/xsd/tripinfo_file.xsd">
    <tripinfo id="116" depart="18240.00" departLane="48211196#5_0" departPos="5.10" departSpeed="0.00" departDelay="0.00" arrival="18835.00" arrivalLane="-8916792_0" arrivalPos="615.11" arrivalSpeed="11.27" duration="595.00" routeLength="5413.78" waitingTime="96.00" waitingCount="4" stopTime="0.00" timeLoss="161.28" rerouteNo="0" devices="vehroute_116 tripinfo_116 emissions_116" vType="vecType" speedFactor="1.12" vaporized="">
        <emissions CO_abs="32596.410476" CO2_abs="1549450.462297" HC_abs="183.726263" PMx_abs="25.975840" NOx_abs="621.255410" fuel_abs="494210.890279" electricity_abs="0"/>
    </tripinfo>
    <tripinfo id="64" depart="18060.00" departLane="28319343#2_0" departPos="5.10" departSpeed="0.00" departDelay="0.00" arrival="18872.00" arrivalLane="28319343#2_0" arrivalPos="90.58" arrivalSpeed="10.19" duration="812.00" routeLength="9974.14" waitingTime="218.00" waitingCount="8" stopTime="0.00" timeLoss="284.88" rerouteNo="1" devices="vehroute_64 tripinfo_64 emissions_64" vType="vecType" speedFactor="0.94" vaporized="">
        <emissions CO_abs="64856.433030" CO2_abs="2754970.311903" HC_abs="359.704062" PMx_abs="54.447687" NOx_abs="1084.151726" fuel_abs="878722.413004" electricity_abs="0"/>
    </tripinfo>
    <tripinfo id="71" depart="18120.00" departLane="52432938#0_0" departPos="5.10" departSpeed="0.00" departDelay="0.00" arrival="19059.00" arrivalLane="52432938#0_1" arrivalPos="69.49" arrivalSpeed="10.63" duration="939.00" routeLength="10567.87" waitingTime="326.00" waitingCount="9" stopTime="0.00" timeLoss="412.04" rerouteNo="1" devices="vehroute_71 tripinfo_71 emissions_71" vType="vecType" speedFactor="0.97" vaporized="">
        <emissions CO_abs="88056.993405" CO2_abs="3285596.068086" HC_abs="478.977230" PMx_abs="67.995407" NOx_abs="1315.799065" fuel_abs="1047973.531205" electricity_abs="0"/>
    </tripinfo>
    <tripinfo id="148" depart="18480.00" departLane="31129765_0" departPos="5.10" departSpeed="0.00" departDelay="0.00" arrival="19112.00" arrivalLane="31129765_0" arrivalPos="639.51" arrivalSpeed="27.77" duration="632.00" routeLength="13470.91" waitingTime="93.00" waitingCount="4" stopTime="0.00" timeLoss="158.22" rerouteNo="6" devices="vehroute_148 tripinfo_148 emissions_148" vType="vecType" speedFactor="1.26" vaporized="">
        <emissions CO_abs="82580.830589" CO2_abs="3732057.025166" HC_abs="470.060445" PMx_abs="90.150883" NOx_abs="1479.721179" fuel_abs="1190358.823027" electricity_abs="0"/>
    </tripinfo>
    <tripinfo id="94" depart="18120.00" departLane="254758124#0_0" departPos="5.10" departSpeed="0.00" departDelay="0.00" arrival="19248.00" arrivalLane="254758124#0_1" arrivalPos="106.41" arrivalSpeed="11.47" duration="1128.00" routeLength="12426.75" waitingTime="381.00" waitingCount="15" stopTime="0.00" timeLoss="505.29" rerouteNo="1" devices="vehroute_94 tripinfo_94 emissions_94" vType="vecType" speedFactor="1.09" vaporized="">
        <emissions CO_abs="112451.449410" CO2_abs="4063815.749580" HC_abs="609.812444" PMx_abs="86.999498" NOx_abs="1646.699674" fuel_abs="1296193.601815" electricity_abs="0"/>
    </tripinfo>
    <tripinfo id="228" depart="19080.00" departLane="144489137#3_0" departPos="5.10" departSpeed="0.00" departDelay="0.00" arrival="19382.00" arrivalLane="254756525#26_0" arrivalPos="121.81" arrivalSpeed="10.58" duration="302.00" routeLength="1438.30" waitingTime="138.00" waitingCount="5" stopTime="0.00" timeLoss="171.12" rerouteNo="0" devices="vehroute_228 tripinfo_228 emissions_228" vType="vecType" speedFactor="0.98" vaporized="">
        <emissions CO_abs="30061.169808" CO2_abs="771349.873189" HC_abs="154.814236" PMx_abs="15.561790" NOx_abs="329.321676" fuel_abs="246034.430892" electricity_abs="0"/>
    </tripinfo>
</tripinfos>
