<?xml version="1.0" encoding="UTF-8"?>

<!-- generated on 2023-01-02 12:24:57 by Eclipse SUMO sumo Version 1.14.1
<configuration xmlns:xsi="http://www.w3.org/2001/XMLSchema-instance" xsi:noNamespaceSchemaLocation="http://sumo.dlr.de/xsd/sumoConfiguration.xsd">

    <input>
        <net-file value="./strategia1_config/../san_francisco.net.xml"/>
        <route-files value="./strategia1_config/../san_francisco.rou.xml"/>
        <additional-files value="./strategia1_config/../san_francisco.poly.xml,./strategia1_config/../parking_capacity_100%25/off_parking_100%25.add.xml,./strategia1_config/../parking_capacity_100%25/on_parking_100%25.add.xml"/>
    </input>

    <output>
        <emission-output value="./strategia1_config/../output/strategia1/100%25/emissions.xml"/>
        <tripinfo-output value="./strategia1_config/../output/strategia1/100%25/tripinfo.xml"/>
        <vehroute-output value="./strategia1_config/../output/strategia1/100%25/vehroute.xml"/>
        <stop-output value="./strategia1_config/../output/strategia1/100%25/stops.xml"/>
        <collision-output value="./strategia1_config/../output/strategia1/100%25/collision.xml"/>
        <statistic-output value="./strategia1_config/../output/strategia1/100%25/statistic.xml"/>
    </output>

    <time>
        <step-length value="1"/>
    </time>

    <processing>
        <ignore-route-errors value="false"/>
    </processing>

    <report>
        <verbose value="true"/>
        <xml-validation value="never"/>
    </report>

    <traci_server>
        <remote-port value="64155"/>
    </traci_server>

    <gui_only>
        <gui-settings-file value="./strategia1_config/../gui-settings.cfg"/>
        <start value="true"/>
    </gui_only>

</configuration>
-->

<tripinfos xmlns:xsi="http://www.w3.org/2001/XMLSchema-instance" xsi:noNamespaceSchemaLocation="http://sumo.dlr.de/xsd/tripinfo_file.xsd">
    <tripinfo id="302" depart="19800.00" departLane="-254758139#0_0" departPos="5.10" departSpeed="0.00" departDelay="0.00" arrival="20231.00" arrivalLane="-254758139#0_0" arrivalPos="68.19" arrivalSpeed="10.21" duration="431.00" routeLength="9394.24" waitingTime="31.00" waitingCount="3" stopTime="0.00" timeLoss="72.23" rerouteNo="1" devices="vehroute_302 tripinfo_302 emissions_302" vType="vecType" speedFactor="1.01" vaporized="">
        <emissions CO_abs="33169.372796" CO2_abs="2146297.215198" HC_abs="203.788347" PMx_abs="45.423325" NOx_abs="811.882641" fuel_abs="684570.409648" electricity_abs="0"/>
    </tripinfo>
    <tripinfo id="313" depart="19920.00" departLane="-111089307#4_0" departPos="5.10" departSpeed="0.00" departDelay="0.00" arrival="20320.00" arrivalLane="52432936#0_0" arrivalPos="124.42" arrivalSpeed="11.28" duration="400.00" routeLength="2900.94" waitingTime="123.00" waitingCount="3" stopTime="0.00" timeLoss="168.05" rerouteNo="0" devices="vehroute_313 tripinfo_313 emissions_313" vType="vecType" speedFactor="1.12" vaporized="">
        <emissions CO_abs="30516.276364" CO2_abs="1079351.563133" HC_abs="163.478536" PMx_abs="19.507973" NOx_abs="442.397350" fuel_abs="344272.009133" electricity_abs="0"/>
    </tripinfo>
    <tripinfo id="301" depart="19800.00" departLane="-191296172#2_0" departPos="5.10" departSpeed="0.00" departDelay="0.00" arrival="20328.00" arrivalLane="-191296172#2_1" arrivalPos="137.04" arrivalSpeed="9.47" duration="528.00" routeLength="4929.85" waitingTime="22.00" waitingCount="1" stopTime="100.00" timeLoss="72.80" rerouteNo="5" devices="vehroute_301 tripinfo_301 emissions_301" vType="vecType" speedFactor="0.94" vaporized="">
        <emissions CO_abs="20799.799696" CO2_abs="1284459.251023" HC_abs="124.500557" PMx_abs="22.263965" NOx_abs="510.226391" fuel_abs="409685.460044" electricity_abs="0"/>
    </tripinfo>
    <tripinfo id="312" depart="19860.00" departLane="8922307_0" departPos="5.10" departSpeed="0.00" departDelay="0.00" arrival="20353.00" arrivalLane="254756525#26_0" arrivalPos="121.81" arrivalSpeed="11.67" duration="493.00" routeLength="3140.72" waitingTime="169.00" waitingCount="6" stopTime="0.00" timeLoss="224.02" rerouteNo="0" devices="vehroute_312 tripinfo_312 emissions_312" vType="vecType" speedFactor="1.05" vaporized="">
        <emissions CO_abs="39982.522089" CO2_abs="1256802.046343" HC_abs="210.921736" PMx_abs="22.978509" NOx_abs="518.583756" fuel_abs="400874.392625" electricity_abs="0"/>
    </tripinfo>
    <tripinfo id="323" depart="20040.00" departLane="254466686#4_0" departPos="5.10" departSpeed="0.00" departDelay="0.00" arrival="20536.00" arrivalLane="204967525_0" arrivalPos="146.26" arrivalSpeed="10.09" duration="496.00" routeLength="2439.11" waitingTime="215.00" waitingCount="7" stopTime="0.00" timeLoss="266.07" rerouteNo="0" devices="vehroute_323 tripinfo_323 emissions_323" vType="vecType" speedFactor="0.95" vaporized="">
        <emissions CO_abs="47853.438114" CO2_abs="1236853.268281" HC_abs="246.586838" PMx_abs="24.565824" NOx_abs="525.806458" fuel_abs="394514.408862" electricity_abs="0"/>
    </tripinfo>
    <tripinfo id="322" depart="20040.00" departLane="99231460_0" departPos="5.10" departSpeed="0.00" departDelay="0.00" arrival="20537.00" arrivalLane="-8916792_0" arrivalPos="615.11" arrivalSpeed="9.50" duration="497.00" routeLength="3547.42" waitingTime="108.00" waitingCount="3" stopTime="0.00" timeLoss="150.64" rerouteNo="0" devices="vehroute_322 tripinfo_322 emissions_322" vType="vecType" speedFactor="0.92" vaporized="">
        <emissions CO_abs="30914.148884" CO2_abs="1121343.488476" HC_abs="166.475471" PMx_abs="18.730033" NOx_abs="453.657293" fuel_abs="357666.801066" electricity_abs="0"/>
    </tripinfo>
    <tripinfo id="311" depart="19860.00" departLane="204884387#0_0" departPos="5.10" departSpeed="0.00" departDelay="0.00" arrival="20568.00" arrivalLane="204884387#0_0" arrivalPos="132.79" arrivalSpeed="11.36" duration="708.00" routeLength="10123.88" waitingTime="153.00" waitingCount="6" stopTime="0.00" timeLoss="217.89" rerouteNo="1" devices="vehroute_311 tripinfo_311 emissions_311" vType="vecType" speedFactor="1.03" vaporized="">
        <emissions CO_abs="58457.985738" CO2_abs="2746563.793065" HC_abs="332.678382" PMx_abs="56.436157" NOx_abs="1076.750203" fuel_abs="876036.410668" electricity_abs="0"/>
    </tripinfo>
    <tripinfo id="318" depart="19980.00" departLane="-88572970_0" departPos="5.10" departSpeed="0.00" departDelay="0.00" arrival="20623.00" arrivalLane="-88572970_1" arrivalPos="108.68" arrivalSpeed="9.30" duration="643.00" routeLength="9249.43" waitingTime="127.00" waitingCount="7" stopTime="0.00" timeLoss="185.44" rerouteNo="1" devices="vehroute_318 tripinfo_318 emissions_318" vType="vecType" speedFactor="0.94" vaporized="">
        <emissions CO_abs="46714.099618" CO2_abs="2318885.343250" HC_abs="266.890212" PMx_abs="45.446386" NOx_abs="893.687155" fuel_abs="739625.745827" electricity_abs="0"/>
    </tripinfo>
    <tripinfo id="306" depart="19800.00" departLane="204884387#0_0" departPos="5.10" departSpeed="0.00" departDelay="0.00" arrival="20628.00" arrivalLane="204884387#0_0" arrivalPos="132.79" arrivalSpeed="10.76" duration="828.00" routeLength="3970.57" waitingTime="302.00" waitingCount="12" stopTime="100.00" timeLoss="390.03" rerouteNo="5" devices="vehroute_306 tripinfo_306 emissions_306" vType="vecType" speedFactor="1.05" vaporized="">
        <emissions CO_abs="69156.535928" CO2_abs="1943833.456819" HC_abs="359.999694" PMx_abs="38.257617" NOx_abs="821.932736" fuel_abs="620013.916857" electricity_abs="0"/>
    </tripinfo>
    <tripinfo id="326" depart="20100.00" departLane="88466052#1_0" departPos="5.10" departSpeed="0.00" departDelay="0.00" arrival="20719.00" arrivalLane="88466052#1_0" arrivalPos="202.96" arrivalSpeed="12.26" duration="619.00" routeLength="9458.72" waitingTime="169.00" waitingCount="8" stopTime="0.00" timeLoss="238.60" rerouteNo="1" devices="vehroute_326 tripinfo_326 emissions_326" vType="vecType" speedFactor="1.18" vaporized="">
        <emissions CO_abs="70865.883490" CO2_abs="2828762.636459" HC_abs="392.519470" PMx_abs="64.973961" NOx_abs="1125.628082" fuel_abs="902255.458406" electricity_abs="0"/>
    </tripinfo>
    <tripinfo id="317" depart="19920.00" departLane="225518502#2_0" departPos="5.10" departSpeed="0.00" departDelay="0.00" arrival="20805.00" arrivalLane="225518502#2_0" arrivalPos="24.03" arrivalSpeed="10.25" duration="885.00" routeLength="5743.14" waitingTime="213.00" waitingCount="8" stopTime="100.00" timeLoss="295.65" rerouteNo="2" devices="vehroute_317 tripinfo_317 emissions_317" vType="vecType" speedFactor="0.94" vaporized="">
        <emissions CO_abs="57834.614306" CO2_abs="2017921.750457" HC_abs="309.830904" PMx_abs="36.212045" NOx_abs="825.377294" fuel_abs="643640.914771" electricity_abs="0"/>
    </tripinfo>
    <tripinfo id="314" depart="19920.00" departLane="144489137#7_0" departPos="5.10" departSpeed="0.00" departDelay="0.00" arrival="20806.00" arrivalLane="144489137#7_0" arrivalPos="146.84" arrivalSpeed="10.38" duration="886.00" routeLength="5743.24" waitingTime="286.00" waitingCount="9" stopTime="100.00" timeLoss="375.99" rerouteNo="5" devices="vehroute_314 tripinfo_314 emissions_314" vType="vecType" speedFactor="0.99" vaporized="">
        <emissions CO_abs="70935.281480" CO2_abs="2325471.864356" HC_abs="377.260807" PMx_abs="45.592165" NOx_abs="965.424933" fuel_abs="741736.926955" electricity_abs="0"/>
    </tripinfo>
    <tripinfo id="332" depart="20400.00" departLane="-242896157#0_0" departPos="5.10" departSpeed="0.00" departDelay="0.00" arrival="20892.00" arrivalLane="-242896157#0_1" arrivalPos="109.29" arrivalSpeed="11.08" duration="492.00" routeLength="8698.52" waitingTime="75.00" waitingCount="4" stopTime="0.00" timeLoss="118.82" rerouteNo="1" devices="vehroute_332 tripinfo_332 emissions_332" vType="vecType" speedFactor="1.02" vaporized="">
        <emissions CO_abs="40154.624431" CO2_abs="2144792.526833" HC_abs="234.839195" PMx_abs="45.052342" NOx_abs="829.055948" fuel_abs="684093.789002" electricity_abs="0"/>
    </tripinfo>
    <tripinfo id="319" depart="20040.00" departLane="8919179#1_0" departPos="5.10" departSpeed="0.00" departDelay="0.00" arrival="20896.00" arrivalLane="8919179#1_0" arrivalPos="11.27" arrivalSpeed="9.17" duration="856.00" routeLength="5970.33" waitingTime="193.00" waitingCount="9" stopTime="100.00" timeLoss="294.62" rerouteNo="1" devices="vehroute_319 tripinfo_319 emissions_319" vType="vecType" speedFactor="1.16" vaporized="">
        <emissions CO_abs="53897.243722" CO2_abs="2073155.320187" HC_abs="292.121456" PMx_abs="37.394498" NOx_abs="848.660348" fuel_abs="661254.547511" electricity_abs="0"/>
    </tripinfo>
    <tripinfo id="303" depart="19800.00" departLane="-204967525_0" departPos="5.10" departSpeed="0.00" departDelay="0.00" arrival="20908.00" arrivalLane="-204967525_1" arrivalPos="146.26" arrivalSpeed="10.99" duration="1108.00" routeLength="7294.50" waitingTime="275.00" waitingCount="15" stopTime="100.00" timeLoss="404.55" rerouteNo="4" devices="vehroute_303 tripinfo_303 emissions_303" vType="vecType" speedFactor="1.08" vaporized="">
        <emissions CO_abs="73754.084358" CO2_abs="2623485.767688" HC_abs="395.983435" PMx_abs="46.763327" NOx_abs="1073.340656" fuel_abs="836792.335976" electricity_abs="0"/>
    </tripinfo>
    <tripinfo id="310" depart="19860.00" departLane="31129765_0" departPos="5.10" departSpeed="0.00" departDelay="0.00" arrival="20961.00" arrivalLane="31129765_0" arrivalPos="639.51" arrivalSpeed="23.31" duration="1101.00" routeLength="8198.99" waitingTime="379.00" waitingCount="14" stopTime="100.00" timeLoss="496.87" rerouteNo="2" devices="vehroute_310 tripinfo_310 emissions_310" vType="vecType" speedFactor="1.09" vaporized="">
        <emissions CO_abs="96758.842401" CO2_abs="3225203.756505" HC_abs="516.525490" PMx_abs="66.170002" NOx_abs="1338.317775" fuel_abs="1028714.280787" electricity_abs="0"/>
    </tripinfo>
    <tripinfo id="320" depart="20040.00" departLane="191296172#0_0" departPos="5.10" departSpeed="0.00" departDelay="0.00" arrival="20962.00" arrivalLane="191296172#0_0" arrivalPos="157.44" arrivalSpeed="8.64" duration="922.00" routeLength="5324.91" waitingTime="184.00" waitingCount="8" stopTime="100.00" timeLoss="280.42" rerouteNo="2" devices="vehroute_320 tripinfo_320 emissions_320" vType="vecType" speedFactor="0.83" vaporized="">
        <emissions CO_abs="58693.520968" CO2_abs="1921312.993419" HC_abs="310.842694" PMx_abs="34.347546" NOx_abs="787.928994" fuel_abs="612828.453917" electricity_abs="0"/>
    </tripinfo>
    <tripinfo id="325" depart="20100.00" departLane="31129765_0" departPos="5.10" departSpeed="0.00" departDelay="0.00" arrival="20966.00" arrivalLane="31129765_0" arrivalPos="639.51" arrivalSpeed="20.75" duration="866.00" routeLength="8684.20" waitingTime="91.00" waitingCount="3" stopTime="100.00" timeLoss="172.86" rerouteNo="4" devices="vehroute_325 tripinfo_325 emissions_325" vType="vecType" speedFactor="0.93" vaporized="">
        <emissions CO_abs="44464.656339" CO2_abs="2367131.622544" HC_abs="256.879971" PMx_abs="42.371246" NOx_abs="938.536181" fuel_abs="755012.800875" electricity_abs="0"/>
    </tripinfo>
    <tripinfo id="305" depart="19800.00" departLane="31129765_0" departPos="5.10" departSpeed="0.00" departDelay="0.00" arrival="21016.00" arrivalLane="31129765_0" arrivalPos="639.51" arrivalSpeed="18.06" duration="1216.00" routeLength="7077.59" waitingTime="402.00" waitingCount="15" stopTime="100.00" timeLoss="517.78" rerouteNo="2" devices="vehroute_305 tripinfo_305 emissions_305" vType="vecType" speedFactor="0.83" vaporized="">
        <emissions CO_abs="98127.300176" CO2_abs="2932700.851269" HC_abs="513.629391" PMx_abs="56.319694" NOx_abs="1218.601034" fuel_abs="935425.694392" electricity_abs="0"/>
    </tripinfo>
    <tripinfo id="300" depart="19800.00" departLane="-242896157#0_0" departPos="5.10" departSpeed="0.00" departDelay="0.00" arrival="21051.00" arrivalLane="-242896157#0_0" arrivalPos="109.29" arrivalSpeed="11.01" duration="1251.00" routeLength="7110.58" waitingTime="409.00" waitingCount="18" stopTime="100.00" timeLoss="550.63" rerouteNo="4" devices="vehroute_300 tripinfo_300 emissions_300" vType="vecType" speedFactor="1.06" vaporized="">
        <emissions CO_abs="97940.998178" CO2_abs="2976414.644236" HC_abs="514.685401" PMx_abs="56.367751" NOx_abs="1242.100248" fuel_abs="949368.345119" electricity_abs="0"/>
    </tripinfo>
    <tripinfo id="307" depart="19860.00" departLane="47172109#0_0" departPos="5.10" departSpeed="0.00" departDelay="0.00" arrival="21088.00" arrivalLane="47172109#0_0" arrivalPos="192.98" arrivalSpeed="8.92" duration="1228.00" routeLength="8200.71" waitingTime="390.00" waitingCount="13" stopTime="100.00" timeLoss="516.44" rerouteNo="11" devices="vehroute_307 tripinfo_307 emissions_307" vType="vecType" speedFactor="0.89" vaporized="">
        <emissions CO_abs="100345.458881" CO2_abs="3162638.618288" HC_abs="530.273867" PMx_abs="62.383077" NOx_abs="1309.274207" fuel_abs="1008763.577771" electricity_abs="0"/>
    </tripinfo>
    <tripinfo id="324" depart="20040.00" departLane="224384035#0_0" departPos="5.10" departSpeed="0.00" departDelay="0.00" arrival="21121.00" arrivalLane="224384035#0_0" arrivalPos="123.84" arrivalSpeed="12.33" duration="1081.00" routeLength="6810.48" waitingTime="330.00" waitingCount="13" stopTime="100.00" timeLoss="447.60" rerouteNo="2" devices="vehroute_324 tripinfo_324 emissions_324" vType="vecType" speedFactor="1.13" vaporized="">
        <emissions CO_abs="80276.155483" CO2_abs="2653056.728090" HC_abs="426.077521" PMx_abs="49.588901" NOx_abs="1098.572782" fuel_abs="846225.360888" electricity_abs="0"/>
    </tripinfo>
    <tripinfo id="321" depart="20040.00" departLane="254396709#0_0" departPos="5.10" departSpeed="0.00" departDelay="0.00" arrival="21123.00" arrivalLane="254396709#0_0" arrivalPos="146.41" arrivalSpeed="8.89" duration="1083.00" routeLength="5067.90" waitingTime="353.00" waitingCount="16" stopTime="100.00" timeLoss="466.61" rerouteNo="2" devices="vehroute_321 tripinfo_321 emissions_321" vType="vecType" speedFactor="0.87" vaporized="">
        <emissions CO_abs="86159.571220" CO2_abs="2343601.948574" HC_abs="446.368407" PMx_abs="44.474474" NOx_abs="984.665765" fuel_abs="747529.187776" electricity_abs="0"/>
    </tripinfo>
    <tripinfo id="308" depart="19860.00" departLane="144489137#0_0" departPos="5.10" departSpeed="0.00" departDelay="0.00" arrival="21136.00" arrivalLane="144489137#0_0" arrivalPos="135.49" arrivalSpeed="9.82" duration="1276.00" routeLength="6198.03" waitingTime="471.00" waitingCount="16" stopTime="100.00" timeLoss="588.12" rerouteNo="2" devices="vehroute_308 tripinfo_308 emissions_308" vType="vecType" speedFactor="0.94" vaporized="">
        <emissions CO_abs="106855.875794" CO2_abs="2895075.860806" HC_abs="553.450748" PMx_abs="55.251366" NOx_abs="1215.453996" fuel_abs="923430.728896" electricity_abs="0"/>
    </tripinfo>
    <tripinfo id="328" depart="20220.00" departLane="p1#1_0" departPos="5.10" departSpeed="0.00" departDelay="0.00" arrival="21144.00" arrivalLane="p1#1_0" arrivalPos="53.21" arrivalSpeed="1.82" duration="924.00" routeLength="6318.33" waitingTime="200.00" waitingCount="9" stopTime="100.00" timeLoss="313.98" rerouteNo="5" devices="vehroute_328 tripinfo_328 emissions_328" vType="vecType" speedFactor="1.01" vaporized="">
        <emissions CO_abs="64186.651411" CO2_abs="2306155.322553" HC_abs="345.835391" PMx_abs="43.558092" NOx_abs="946.721484" fuel_abs="735573.650787" electricity_abs="0"/>
    </tripinfo>
    <tripinfo id="304" depart="19800.00" departLane="120256350#3_0" departPos="5.10" departSpeed="0.00" departDelay="0.00" arrival="21180.00" arrivalLane="120256350#3_0" arrivalPos="192.58" arrivalSpeed="11.38" duration="1380.00" routeLength="7163.95" waitingTime="519.00" waitingCount="18" stopTime="100.00" timeLoss="657.09" rerouteNo="2" devices="vehroute_304 tripinfo_304 emissions_304" vType="vecType" speedFactor="1.03" vaporized="">
        <emissions CO_abs="115872.898554" CO2_abs="3208574.626506" HC_abs="601.940336" PMx_abs="62.155423" NOx_abs="1349.377877" fuel_abs="1023423.825395" electricity_abs="0"/>
    </tripinfo>
    <tripinfo id="309" depart="19860.00" departLane="8915254_0" departPos="5.10" departSpeed="0.00" departDelay="0.00" arrival="21201.00" arrivalLane="8915254_0" arrivalPos="317.12" arrivalSpeed="18.89" duration="1341.00" routeLength="7727.45" waitingTime="401.00" waitingCount="16" stopTime="100.00" timeLoss="532.97" rerouteNo="8" devices="vehroute_309 tripinfo_309 emissions_309" vType="vecType" speedFactor="0.86" vaporized="">
        <emissions CO_abs="102547.328077" CO2_abs="3121978.322004" HC_abs="538.771120" PMx_abs="58.916535" NOx_abs="1299.494725" fuel_abs="995797.923125" electricity_abs="0"/>
    </tripinfo>
    <tripinfo id="315" depart="19920.00" departLane="-35675861#0_0" departPos="5.10" departSpeed="0.00" departDelay="0.00" arrival="21225.00" arrivalLane="-35675861#0_0" arrivalPos="82.43" arrivalSpeed="9.52" duration="1305.00" routeLength="7507.65" waitingTime="349.00" waitingCount="15" stopTime="100.00" timeLoss="479.64" rerouteNo="2" devices="vehroute_315 tripinfo_315 emissions_315" vType="vecType" speedFactor="0.93" vaporized="">
        <emissions CO_abs="91656.816875" CO2_abs="2877718.104974" HC_abs="483.732517" PMx_abs="52.139599" NOx_abs="1191.127916" fuel_abs="917888.039407" electricity_abs="0"/>
    </tripinfo>
    <tripinfo id="329" depart="20280.00" departLane="27146036#1_0" departPos="5.10" departSpeed="0.00" departDelay="0.00" arrival="21244.00" arrivalLane="27146036#1_1" arrivalPos="87.35" arrivalSpeed="12.71" duration="964.00" routeLength="9010.06" waitingTime="237.00" waitingCount="8" stopTime="100.00" timeLoss="347.70" rerouteNo="5" devices="vehroute_329 tripinfo_329 emissions_329" vType="vecType" speedFactor="1.17" vaporized="">
        <emissions CO_abs="76137.994727" CO2_abs="3057276.861897" HC_abs="418.561835" PMx_abs="62.303644" NOx_abs="1251.785585" fuel_abs="975143.730195" electricity_abs="0"/>
    </tripinfo>
    <tripinfo id="316" depart="19920.00" departLane="-24310636#2_0" departPos="5.10" departSpeed="0.00" departDelay="0.00" arrival="21250.00" arrivalLane="-24310636#2_1" arrivalPos="108.36" arrivalSpeed="9.45" duration="1330.00" routeLength="6603.46" waitingTime="435.00" waitingCount="14" stopTime="100.00" timeLoss="556.82" rerouteNo="2" devices="vehroute_316 tripinfo_316 emissions_316" vType="vecType" speedFactor="0.88" vaporized="">
        <emissions CO_abs="103561.525189" CO2_abs="2861918.274002" HC_abs="537.441904" PMx_abs="53.204412" NOx_abs="1194.705664" fuel_abs="912854.691308" electricity_abs="0"/>
    </tripinfo>
    <tripinfo id="327" depart="20100.00" departLane="111089307#0_0" departPos="5.10" departSpeed="0.00" departDelay="0.00" arrival="21293.00" arrivalLane="111089307#0_0" arrivalPos="135.96" arrivalSpeed="12.08" duration="1193.00" routeLength="7182.83" waitingTime="419.00" waitingCount="15" stopTime="100.00" timeLoss="536.00" rerouteNo="3" devices="vehroute_327 tripinfo_327 emissions_327" vType="vecType" speedFactor="1.15" vaporized="">
        <emissions CO_abs="93718.282765" CO2_abs="2895725.688602" HC_abs="491.999081" PMx_abs="54.624460" NOx_abs="1200.644479" fuel_abs="923630.999953" electricity_abs="0"/>
    </tripinfo>
    <tripinfo id="372" depart="21120.00" departLane="-24310636#2_0" departPos="5.10" departSpeed="0.00" departDelay="0.00" arrival="21309.00" arrivalLane="-24310636#2_1" arrivalPos="108.36" arrivalSpeed="10.06" duration="189.00" routeLength="843.42" waitingTime="0.00" waitingCount="0" stopTime="100.00" timeLoss="13.43" rerouteNo="2" devices="vehroute_372 tripinfo_372 emissions_372" vType="vecType" speedFactor="1.00" vaporized="">
        <emissions CO_abs="3800.556603" CO2_abs="232987.213166" HC_abs="22.672506" PMx_abs="3.675962" NOx_abs="92.672017" fuel_abs="74312.841966" electricity_abs="0"/>
    </tripinfo>
    <tripinfo id="335" depart="20520.00" departLane="-24310636#2_0" departPos="5.10" departSpeed="0.00" departDelay="0.00" arrival="21329.00" arrivalLane="-24310636#2_1" arrivalPos="108.36" arrivalSpeed="9.16" duration="809.00" routeLength="3847.20" waitingTime="227.00" waitingCount="8" stopTime="100.00" timeLoss="295.84" rerouteNo="5" devices="vehroute_335 tripinfo_335 emissions_335" vType="vecType" speedFactor="0.83" vaporized="">
        <emissions CO_abs="57190.239424" CO2_abs="1599846.189041" HC_abs="297.207772" PMx_abs="29.543210" NOx_abs="667.675669" fuel_abs="510296.269177" electricity_abs="0"/>
    </tripinfo>
    <tripinfo id="334" depart="20520.00" departLane="31129765_0" departPos="5.10" departSpeed="0.00" departDelay="0.00" arrival="21353.00" arrivalLane="31129765_0" arrivalPos="639.51" arrivalSpeed="18.76" duration="833.00" routeLength="7304.50" waitingTime="138.00" waitingCount="5" stopTime="100.00" timeLoss="205.63" rerouteNo="2" devices="vehroute_334 tripinfo_334 emissions_334" vType="vecType" speedFactor="0.89" vaporized="">
        <emissions CO_abs="46424.882321" CO2_abs="2093020.566345" HC_abs="258.816590" PMx_abs="36.968742" NOx_abs="830.560369" fuel_abs="667587.952410" electricity_abs="0"/>
    </tripinfo>
    <tripinfo id="333" depart="20520.00" departLane="-254297762#2_0" departPos="5.10" departSpeed="0.00" departDelay="0.00" arrival="21385.00" arrivalLane="-254297762#2_0" arrivalPos="291.17" arrivalSpeed="11.78" duration="865.00" routeLength="5272.17" waitingTime="237.00" waitingCount="9" stopTime="100.00" timeLoss="334.33" rerouteNo="2" devices="vehroute_333 tripinfo_333 emissions_333" vType="vecType" speedFactor="1.10" vaporized="">
        <emissions CO_abs="61541.384859" CO2_abs="2118704.727232" HC_abs="328.828645" PMx_abs="39.392425" NOx_abs="878.419808" fuel_abs="675785.658057" electricity_abs="0"/>
    </tripinfo>
    <tripinfo id="347" depart="20880.00" departLane="31129765_0" departPos="5.10" departSpeed="0.00" departDelay="0.00" arrival="21445.00" arrivalLane="31129765_0" arrivalPos="639.51" arrivalSpeed="22.97" duration="565.00" routeLength="6073.24" waitingTime="60.00" waitingCount="5" stopTime="100.00" timeLoss="117.78" rerouteNo="2" devices="vehroute_347 tripinfo_347 emissions_347" vType="vecType" speedFactor="1.03" vaporized="">
        <emissions CO_abs="31113.561533" CO2_abs="1702330.286385" HC_abs="181.583827" PMx_abs="32.264430" NOx_abs="672.496084" fuel_abs="542968.509509" electricity_abs="0"/>
    </tripinfo>
    <tripinfo id="331" depart="20400.00" departLane="90077241_0" departPos="5.10" departSpeed="0.00" departDelay="0.00" arrival="21494.00" arrivalLane="90077241_0" arrivalPos="3225.35" arrivalSpeed="33.77" duration="1094.00" routeLength="15836.37" waitingTime="187.00" waitingCount="6" stopTime="100.00" timeLoss="293.06" rerouteNo="6" devices="vehroute_331 tripinfo_331 emissions_331" vType="vecType" speedFactor="1.17" vaporized="">
        <emissions CO_abs="98402.318925" CO2_abs="4445672.678095" HC_abs="556.704909" PMx_abs="98.107225" NOx_abs="1762.346955" fuel_abs="1417976.097467" electricity_abs="0"/>
    </tripinfo>
    <tripinfo id="346" depart="20880.00" departLane="90077241_0" departPos="5.10" departSpeed="0.00" departDelay="0.00" arrival="21511.00" arrivalLane="90077241_0" arrivalPos="3225.35" arrivalSpeed="33.37" duration="631.00" routeLength="11564.84" waitingTime="53.00" waitingCount="4" stopTime="100.00" timeLoss="113.14" rerouteNo="2" devices="vehroute_346 tripinfo_346 emissions_346" vType="vecType" speedFactor="1.15" vaporized="">
        <emissions CO_abs="59717.710029" CO2_abs="2999903.500841" HC_abs="347.326234" PMx_abs="69.636350" NOx_abs="1160.180470" fuel_abs="956834.505931" electricity_abs="0"/>
    </tripinfo>
    <tripinfo id="342" depart="20880.00" departLane="-204884378#1_0" departPos="5.10" departSpeed="0.00" departDelay="0.00" arrival="21520.00" arrivalLane="-204884378#1_1" arrivalPos="41.26" arrivalSpeed="12.28" duration="640.00" routeLength="9230.93" waitingTime="195.00" waitingCount="6" stopTime="0.00" timeLoss="252.36" rerouteNo="1" devices="vehroute_342 tripinfo_342 emissions_342" vType="vecType" speedFactor="1.10" vaporized="">
        <emissions CO_abs="67516.436619" CO2_abs="2681258.443676" HC_abs="373.092610" PMx_abs="59.800193" NOx_abs="1072.846429" fuel_abs="855208.778412" electricity_abs="0"/>
    </tripinfo>
    <tripinfo id="336" depart="20640.00" departLane="31129765_0" departPos="5.10" departSpeed="0.00" departDelay="0.00" arrival="21545.00" arrivalLane="31129765_0" arrivalPos="639.51" arrivalSpeed="19.83" duration="905.00" routeLength="7161.80" waitingTime="222.00" waitingCount="10" stopTime="100.00" timeLoss="308.11" rerouteNo="2" devices="vehroute_336 tripinfo_336 emissions_336" vType="vecType" speedFactor="0.92" vaporized="">
        <emissions CO_abs="62737.665090" CO2_abs="2369287.415200" HC_abs="340.088035" PMx_abs="45.048181" NOx_abs="961.445211" fuel_abs="755708.579229" electricity_abs="0"/>
    </tripinfo>
    <tripinfo id="352" depart="20883.00" departLane="90077241_0" departPos="5.10" departSpeed="0.00" departDelay="3.00" arrival="21587.00" arrivalLane="90077241_0" arrivalPos="3225.35" arrivalSpeed="30.93" duration="704.00" routeLength="11839.00" waitingTime="92.00" waitingCount="4" stopTime="100.00" timeLoss="155.61" rerouteNo="2" devices="vehroute_352 tripinfo_352 emissions_352" vType="vecType" speedFactor="1.07" vaporized="">
        <emissions CO_abs="58984.950818" CO2_abs="3018780.890282" HC_abs="343.686529" PMx_abs="67.195139" NOx_abs="1180.505861" fuel_abs="962855.674262" electricity_abs="0"/>
    </tripinfo>
    <tripinfo id="360" depart="21000.00" departLane="8920934_0" departPos="5.10" departSpeed="0.00" departDelay="0.00" arrival="21630.00" arrivalLane="8920934_0" arrivalPos="69.45" arrivalSpeed="11.29" duration="630.00" routeLength="3669.15" waitingTime="157.00" waitingCount="7" stopTime="100.00" timeLoss="223.45" rerouteNo="2" devices="vehroute_360 tripinfo_360 emissions_360" vType="vecType" speedFactor="1.06" vaporized="">
        <emissions CO_abs="40611.567339" CO2_abs="1368784.426998" HC_abs="216.345583" PMx_abs="24.867415" NOx_abs="563.445192" fuel_abs="436591.042161" electricity_abs="0"/>
    </tripinfo>
    <tripinfo id="353" depart="20886.00" departLane="90077241_0" departPos="5.10" departSpeed="0.00" departDelay="6.00" arrival="21655.00" arrivalLane="90077241_0" arrivalPos="3225.35" arrivalSpeed="27.65" duration="769.00" routeLength="13772.33" waitingTime="15.00" waitingCount="2" stopTime="100.00" timeLoss="67.91" rerouteNo="2" devices="vehroute_353 tripinfo_353 emissions_353" vType="vecType" speedFactor="0.96" vaporized="">
        <emissions CO_abs="39391.314030" CO2_abs="2989051.236663" HC_abs="250.959635" PMx_abs="59.301535" NOx_abs="1125.800507" fuel_abs="953368.611049" electricity_abs="0"/>
    </tripinfo>
    <tripinfo id="379" depart="21300.00" departLane="111089307#0_0" departPos="5.10" departSpeed="0.00" departDelay="0.00" arrival="21667.00" arrivalLane="111089307#0_0" arrivalPos="135.96" arrivalSpeed="9.47" duration="367.00" routeLength="1951.28" waitingTime="46.00" waitingCount="1" stopTime="100.00" timeLoss="72.76" rerouteNo="2" devices="vehroute_379 tripinfo_379 emissions_379" vType="vecType" speedFactor="0.90" vaporized="">
        <emissions CO_abs="15805.075042" CO2_abs="609494.333416" HC_abs="85.940205" PMx_abs="10.038031" NOx_abs="246.022122" fuel_abs="194405.485532" electricity_abs="0"/>
    </tripinfo>
    <tripinfo id="363" depart="21060.00" departLane="90077241_0" departPos="5.10" departSpeed="0.00" departDelay="0.00" arrival="21750.00" arrivalLane="90077241_0" arrivalPos="3225.35" arrivalSpeed="30.58" duration="690.00" routeLength="11644.70" waitingTime="106.00" waitingCount="4" stopTime="100.00" timeLoss="160.88" rerouteNo="2" devices="vehroute_363 tripinfo_363 emissions_363" vType="vecType" speedFactor="1.08" vaporized="">