<?xml version="1.0" encoding="UTF-8"?>

<!-- generated on 2022-12-24 11:05:52 by Eclipse SUMO sumo Version 1.14.1
<configuration xmlns:xsi="http://www.w3.org/2001/XMLSchema-instance" xsi:noNamespaceSchemaLocation="http://sumo.dlr.de/xsd/sumoConfiguration.xsd">

    <input>
        <net-file value="./strategia1_config/../san_francisco.net.xml"/>
        <route-files value="./strategia1_config/../san_francisco.rou.xml"/>
        <additional-files value="./strategia1_config/../san_francisco.poly.xml,./strategia1_config/../parking_capacity_100%25/off_parking_100%25.add.xml,./strategia1_config/../parking_capacity_100%25/on_parking_100%25.add.xml"/>
    </input>

    <output>
        <emission-output value="./strategia1_config/../output/strategia1/100%25/emissions.xml"/>
        <tripinfo-output value="./strategia1_config/../output/strategia1/100%25/tripinfo.xml"/>
        <vehroute-output value="./strategia1_config/../output/strategia1/100%25/vehroute.xml"/>
        <stop-output value="./strategia1_config/../output/strategia1/100%25/stops.xml"/>
        <collision-output value="./strategia1_config/../output/strategia1/100%25/collision.xml"/>
        <statistic-output value="./strategia1_config/../output/strategia1/100%25/statistic.xml"/>
    </output>

    <time>
        <step-length value="1"/>
    </time>

    <processing>
        <ignore-route-errors value="false"/>
    </processing>

    <report>
        <verbose value="true"/>
        <xml-validation value="never"/>
    </report>

    <traci_server>
        <remote-port value="49713"/>
    </traci_server>

    <gui_only>
        <gui-settings-file value="./strategia1_config/../gui-settings.cfg"/>
        <start value="true"/>
    </gui_only>

</configuration>
-->

<tripinfos xmlns:xsi="http://www.w3.org/2001/XMLSchema-instance" xsi:noNamespaceSchemaLocation="http://sumo.dlr.de/xsd/tripinfo_file.xsd">
    <tripinfo id="30" depart="18000.00" departLane="-91181760#0_0" departPos="5.10" departSpeed="0.00" departDelay="0.00" arrival="18422.00" arrivalLane="-91181760#0_0" arrivalPos="79.70" arrivalSpeed="13.15" duration="422.00" routeLength="3660.42" waitingTime="1.00" waitingCount="1" stopTime="100.00" timeLoss="43.34" rerouteNo="2" devices="vehroute_30 tripinfo_30 emissions_30" vType="vecType" speedFactor="1.18" vaporized="">
        <emissions CO_abs="11992.607342" CO2_abs="943045.125980" HC_abs="75.674838" PMx_abs="14.984295" NOx_abs="371.175668" fuel_abs="300788.551499" electricity_abs="0"/>
    </tripinfo>
    <tripinfo id="1" depart="18000.00" departLane="31129765_0" departPos="5.10" departSpeed="0.00" departDelay="0.00" arrival="18442.00" arrivalLane="31129765_0" arrivalPos="639.51" arrivalSpeed="20.11" duration="442.00" routeLength="4341.32" waitingTime="31.00" waitingCount="2" stopTime="100.00" timeLoss="74.00" rerouteNo="2" devices="vehroute_1 tripinfo_1 emissions_1" vType="vecType" speedFactor="0.94" vaporized="">
        <emissions CO_abs="20573.323252" CO2_abs="1201678.125632" HC_abs="121.100803" PMx_abs="22.083501" NOx_abs="477.655543" fuel_abs="383281.591818" electricity_abs="0"/>
    </tripinfo>
    <tripinfo id="45" depart="18060.00" departLane="31129765_0" departPos="5.10" departSpeed="0.00" departDelay="0.00" arrival="18464.00" arrivalLane="31129765_0" arrivalPos="639.51" arrivalSpeed="23.97" duration="404.00" routeLength="4234.28" waitingTime="37.00" waitingCount="1" stopTime="100.00" timeLoss="80.77" rerouteNo="2" devices="vehroute_45 tripinfo_45 emissions_45" vType="vecType" speedFactor="1.09" vaporized="">
        <emissions CO_abs="22957.056059" CO2_abs="1294764.029832" HC_abs="135.252432" PMx_abs="25.867137" NOx_abs="522.462996" fuel_abs="412970.712963" electricity_abs="0"/>
    </tripinfo>
    <tripinfo id="21" depart="18000.00" departLane="27167762_0" departPos="5.10" departSpeed="0.00" departDelay="0.00" arrival="18645.00" arrivalLane="27167762_0" arrivalPos="139.02" arrivalSpeed="22.38" duration="645.00" routeLength="5201.43" waitingTime="131.00" waitingCount="5" stopTime="100.00" timeLoss="199.01" rerouteNo="2" devices="vehroute_21 tripinfo_21 emissions_21" vType="vecType" speedFactor="1.01" vaporized="">
        <emissions CO_abs="43533.671397" CO2_abs="1790803.580215" HC_abs="240.330676" PMx_abs="34.712320" NOx_abs="733.585481" fuel_abs="571192.107788" electricity_abs="0"/>
    </tripinfo>
    <tripinfo id="10" depart="18000.00" departLane="90077241_0" departPos="5.10" departSpeed="0.00" departDelay="0.00" arrival="18731.00" arrivalLane="90077241_0" arrivalPos="3225.35" arrivalSpeed="30.44" duration="731.00" routeLength="11810.95" waitingTime="94.00" waitingCount="5" stopTime="100.00" timeLoss="172.78" rerouteNo="2" devices="vehroute_10 tripinfo_10 emissions_10" vType="vecType" speedFactor="1.09" vaporized="">
        <emissions CO_abs="62284.481933" CO2_abs="3094936.894358" HC_abs="360.449919" PMx_abs="69.057527" NOx_abs="1207.888419" fuel_abs="987147.230269" electricity_abs="0"/>
    </tripinfo>
    <tripinfo id="28" depart="18009.00" departLane="90077241_0" departPos="5.10" departSpeed="0.00" departDelay="9.00" arrival="18738.00" arrivalLane="90077241_0" arrivalPos="3225.35" arrivalSpeed="32.02" duration="729.00" routeLength="11976.91" waitingTime="129.00" waitingCount="4" stopTime="100.00" timeLoss="194.98" rerouteNo="3" devices="vehroute_28 tripinfo_28 emissions_28" vType="vecType" speedFactor="1.13" vaporized="">
        <emissions CO_abs="72429.167420" CO2_abs="3334896.405357" HC_abs="413.225145" PMx_abs="76.888293" NOx_abs="1315.222571" fuel_abs="1063684.469959" electricity_abs="0"/>
    </tripinfo>
    <tripinfo id="49" depart="18063.00" departLane="31129765_0" departPos="5.10" departSpeed="0.00" departDelay="3.00" arrival="18743.00" arrivalLane="31129765_0" arrivalPos="639.51" arrivalSpeed="18.33" duration="680.00" routeLength="12944.78" waitingTime="0.00" waitingCount="0" stopTime="100.00" timeLoss="34.16" rerouteNo="2" devices="vehroute_49 tripinfo_49 emissions_49" vType="vecType" speedFactor="0.85" vaporized="">
        <emissions CO_abs="22914.457077" CO2_abs="2481275.410268" HC_abs="160.589421" PMx_abs="45.178876" NOx_abs="902.327177" fuel_abs="791409.631978" electricity_abs="0"/>
    </tripinfo>
    <tripinfo id="16" depart="18006.00" departLane="90077241_0" departPos="5.10" departSpeed="0.00" departDelay="6.00" arrival="18777.00" arrivalLane="90077241_0" arrivalPos="3225.35" arrivalSpeed="25.26" duration="771.00" routeLength="11625.26" waitingTime="91.00" waitingCount="3" stopTime="100.00" timeLoss="147.50" rerouteNo="2" devices="vehroute_16 tripinfo_16 emissions_16" vType="vecType" speedFactor="0.88" vaporized="">
        <emissions CO_abs="44187.340952" CO2_abs="2716040.269330" HC_abs="264.089077" PMx_abs="52.829057" NOx_abs="1037.237202" fuel_abs="866295.269064" electricity_abs="0"/>
    </tripinfo>
    <tripinfo id="33" depart="18000.00" departLane="144489137#0_0" departPos="5.10" departSpeed="0.00" departDelay="0.00" arrival="18781.00" arrivalLane="144489137#0_0" arrivalPos="135.49" arrivalSpeed="12.29" duration="781.00" routeLength="3872.00" waitingTime="298.00" waitingCount="13" stopTime="100.00" timeLoss="387.57" rerouteNo="2" devices="vehroute_33 tripinfo_33 emissions_33" vType="vecType" speedFactor="1.17" vaporized="">
        <emissions CO_abs="66901.410474" CO2_abs="1894039.258834" HC_abs="347.758127" PMx_abs="37.756151" NOx_abs="800.314411" fuel_abs="604130.639786" electricity_abs="0"/>
    </tripinfo>
    <tripinfo id="36" depart="18009.00" departLane="123867455_0" departPos="5.10" departSpeed="0.00" departDelay="9.00" arrival="18793.00" arrivalLane="123867455_0" arrivalPos="904.85" arrivalSpeed="27.66" duration="784.00" routeLength="5708.79" waitingTime="239.00" waitingCount="6" stopTime="100.00" timeLoss="317.93" rerouteNo="4" devices="vehroute_36 tripinfo_36 emissions_36" vType="vecType" speedFactor="0.97" vaporized="">
        <emissions CO_abs="63273.202237" CO2_abs="2141113.142954" HC_abs="338.540542" PMx_abs="43.252204" NOx_abs="884.027100" fuel_abs="682931.813326" electricity_abs="0"/>
    </tripinfo>
    <tripinfo id="47" depart="18060.00" departLane="90077241_0" departPos="5.10" departSpeed="0.00" departDelay="0.00" arrival="18794.00" arrivalLane="90077241_0" arrivalPos="3225.35" arrivalSpeed="26.04" duration="734.00" routeLength="11565.45" waitingTime="54.00" waitingCount="2" stopTime="100.00" timeLoss="99.58" rerouteNo="2" devices="vehroute_47 tripinfo_47 emissions_47" vType="vecType" speedFactor="0.90" vaporized="">
        <emissions CO_abs="37041.591124" CO2_abs="2537203.321521" HC_abs="227.539701" PMx_abs="48.452229" NOx_abs="950.688481" fuel_abs="809253.615192" electricity_abs="0"/>
    </tripinfo>
    <tripinfo id="31" depart="18006.00" departLane="123867455_0" departPos="5.10" departSpeed="0.00" departDelay="6.00" arrival="18802.00" arrivalLane="123867455_0" arrivalPos="904.85" arrivalSpeed="32.37" duration="796.00" routeLength="7632.90" waitingTime="120.00" waitingCount="7" stopTime="100.00" timeLoss="232.08" rerouteNo="2" devices="vehroute_31 tripinfo_31 emissions_31" vType="vecType" speedFactor="1.15" vaporized="">
        <emissions CO_abs="49317.979268" CO2_abs="2345457.048252" HC_abs="279.008185" PMx_abs="44.587718" NOx_abs="946.215566" fuel_abs="748100.235447" electricity_abs="0"/>
    </tripinfo>
    <tripinfo id="13" depart="18003.00" departLane="90077241_0" departPos="5.10" departSpeed="0.00" departDelay="3.00" arrival="18835.00" arrivalLane="90077241_0" arrivalPos="3225.35" arrivalSpeed="31.43" duration="832.00" routeLength="12752.38" waitingTime="142.00" waitingCount="5" stopTime="100.00" timeLoss="212.22" rerouteNo="2" devices="vehroute_13 tripinfo_13 emissions_13" vType="vecType" speedFactor="1.12" vaporized="">
        <emissions CO_abs="75322.653183" CO2_abs="3470710.635911" HC_abs="428.840924" PMx_abs="77.870013" NOx_abs="1368.780482" fuel_abs="1107004.460909" electricity_abs="0"/>
    </tripinfo>
    <tripinfo id="20" depart="18000.00" departLane="123867455_0" departPos="5.10" departSpeed="0.00" departDelay="0.00" arrival="18836.00" arrivalLane="123867455_0" arrivalPos="904.85" arrivalSpeed="29.01" duration="836.00" routeLength="6690.85" waitingTime="207.00" waitingCount="9" stopTime="100.00" timeLoss="299.28" rerouteNo="2" devices="vehroute_20 tripinfo_20 emissions_20" vType="vecType" speedFactor="1.02" vaporized="">
        <emissions CO_abs="62788.471044" CO2_abs="2360556.402357" HC_abs="341.948104" PMx_abs="46.779153" NOx_abs="965.686238" fuel_abs="752922.612754" electricity_abs="0"/>
    </tripinfo>
    <tripinfo id="15" depart="18000.00" departLane="-24310636#2_0" departPos="5.10" departSpeed="0.00" departDelay="0.00" arrival="18844.00" arrivalLane="-24310636#2_1" arrivalPos="108.36" arrivalSpeed="9.36" duration="844.00" routeLength="6010.81" waitingTime="139.00" waitingCount="8" stopTime="100.00" timeLoss="223.89" rerouteNo="2" devices="vehroute_15 tripinfo_15 emissions_15" vType="vecType" speedFactor="0.93" vaporized="">
        <emissions CO_abs="47128.583564" CO2_abs="1884430.417519" HC_abs="257.736933" PMx_abs="32.584145" NOx_abs="761.868121" fuel_abs="601059.204724" electricity_abs="0"/>
    </tripinfo>
    <tripinfo id="39" depart="18006.00" departLane="31129765_0" departPos="5.10" departSpeed="0.00" departDelay="6.00" arrival="18850.00" arrivalLane="31129765_0" arrivalPos="639.51" arrivalSpeed="19.94" duration="844.00" routeLength="6254.53" waitingTime="256.00" waitingCount="8" stopTime="100.00" timeLoss="327.02" rerouteNo="3" devices="vehroute_39 tripinfo_39 emissions_39" vType="vecType" speedFactor="0.90" vaporized="">
        <emissions CO_abs="63955.139871" CO2_abs="2213131.297068" HC_abs="341.765245" PMx_abs="42.952233" NOx_abs="903.383457" fuel_abs="705903.411906" electricity_abs="0"/>
    </tripinfo>
    <tripinfo id="27" depart="18000.00" departLane="-8916048_0" departPos="5.10" departSpeed="0.00" departDelay="0.00" arrival="18887.00" arrivalLane="-8916048_0" arrivalPos="126.72" arrivalSpeed="9.93" duration="887.00" routeLength="6742.86" waitingTime="121.00" waitingCount="3" stopTime="100.00" timeLoss="209.65" rerouteNo="2" devices="vehroute_27 tripinfo_27 emissions_27" vType="vecType" speedFactor="0.95" vaporized="">
        <emissions CO_abs="44777.862066" CO2_abs="1973427.676514" HC_abs="249.249787" PMx_abs="32.893571" NOx_abs="788.714981" fuel_abs="629444.478095" electricity_abs="0"/>
    </tripinfo>
    <tripinfo id="2" depart="18000.00" departLane="142972028#1_0" departPos="5.10" departSpeed="0.00" departDelay="0.00" arrival="18937.00" arrivalLane="142972028#1_0" arrivalPos="161.20" arrivalSpeed="10.96" duration="937.00" routeLength="6951.71" waitingTime="169.00" waitingCount="9" stopTime="100.00" timeLoss="279.51" rerouteNo="3" devices="vehroute_2 tripinfo_2 emissions_2" vType="vecType" speedFactor="1.01" vaporized="">
        <emissions CO_abs="55294.622679" CO2_abs="2241666.116372" HC_abs="303.724202" PMx_abs="39.928576" NOx_abs="912.867714" fuel_abs="715001.770012" electricity_abs="0"/>
    </tripinfo>
    <tripinfo id="40" depart="18000.00" departLane="-206679802#4_0" departPos="5.10" departSpeed="0.00" departDelay="0.00" arrival="18956.00" arrivalLane="-206679802#4_0" arrivalPos="292.11" arrivalSpeed="10.45" duration="956.00" routeLength="6393.61" waitingTime="204.00" waitingCount="7" stopTime="100.00" timeLoss="300.38" rerouteNo="10" devices="vehroute_40 tripinfo_40 emissions_40" vType="vecType" speedFactor="1.03" vaporized="">
        <emissions CO_abs="57984.736084" CO2_abs="2190534.127908" HC_abs="314.537477" PMx_abs="38.343224" NOx_abs="893.500278" fuel_abs="698695.642648" electricity_abs="0"/>
    </tripinfo>
    <tripinfo id="12" depart="18000.00" departLane="-23883761_0" departPos="5.10" departSpeed="0.00" departDelay="0.00" arrival="18973.00" arrivalLane="-23883761_0" arrivalPos="197.88" arrivalSpeed="11.64" duration="973.00" routeLength="5849.00" waitingTime="266.00" waitingCount="10" stopTime="100.00" timeLoss="373.00" rerouteNo="2" devices="vehroute_12 tripinfo_12 emissions_12" vType="vecType" speedFactor="1.05" vaporized="">
        <emissions CO_abs="68178.640425" CO2_abs="2254264.022666" HC_abs="362.575793" PMx_abs="41.595464" NOx_abs="934.200662" fuel_abs="719025.887337" electricity_abs="0"/>
    </tripinfo>
    <tripinfo id="42" depart="18009.00" departLane="31129765_0" departPos="5.10" departSpeed="0.00" departDelay="9.00" arrival="18981.00" arrivalLane="31129765_0" arrivalPos="639.51" arrivalSpeed="23.33" duration="972.00" routeLength="7763.38" waitingTime="294.00" waitingCount="11" stopTime="100.00" timeLoss="403.61" rerouteNo="2" devices="vehroute_42 tripinfo_42 emissions_42" vType="vecType" speedFactor="1.09" vaporized="">
        <emissions CO_abs="80288.881500" CO2_abs="2859966.630548" HC_abs="432.500398" PMx_abs="58.071625" NOx_abs="1182.921155" fuel_abs="912214.941216" electricity_abs="0"/>
    </tripinfo>
    <tripinfo id="29" depart="18000.00" departLane="-35977367#2_0" departPos="5.10" departSpeed="0.00" departDelay="0.00" arrival="18988.00" arrivalLane="-35977367#2_0" arrivalPos="431.73" arrivalSpeed="9.81" duration="988.00" routeLength="6273.32" waitingTime="195.00" waitingCount="8" stopTime="100.00" timeLoss="285.03" rerouteNo="4" devices="vehroute_29 tripinfo_29 emissions_29" vType="vecType" speedFactor="0.93" vaporized="">
        <emissions CO_abs="57965.242079" CO2_abs="2118565.059553" HC_abs="312.660055" PMx_abs="36.083943" NOx_abs="861.774988" fuel_abs="675742.251074" electricity_abs="0"/>
    </tripinfo>
