<?xml version="1.0" encoding="UTF-8"?>

<!-- generated on 2022-12-12 14:22:53 by Eclipse SUMO sumo Version 1.14.1
<configuration xmlns:xsi="http://www.w3.org/2001/XMLSchema-instance" xsi:noNamespaceSchemaLocation="http://sumo.dlr.de/xsd/sumoConfiguration.xsd">

    <input>
        <net-file value="./strategia1_config/../san_francisco.net.xml"/>
        <route-files value="./strategia1_config/../san_francisco.rou.xml"/>
        <additional-files value="./strategia1_config/../san_francisco.poly.xml,./strategia1_config/../parking_capacity_100%25/off_parking_100%25.add.xml,./strategia1_config/../parking_capacity_100%25/on_parking_100%25.add.xml"/>
    </input>

    <output>
        <emission-output value="./strategia1_config/../output/strategia1/100%25/emission.xml"/>
        <summary-output value="./strategia1_config/../output/strategia1/100%25/summary.xml"/>
        <tripinfo-output value="./strategia1_config/../output/strategia1/100%25/tripinfo.xml"/>
        <vehroute-output value="./strategia1_config/../output/strategia1/100%25/vehroute.xml"/>
        <stop-output value="./strategia1_config/../output/strategia1/100%25/stops.xml"/>
        <collision-output value="./strategia1_config/../output/strategia1/100%25/collision.xml"/>
        <statistic-output value="./strategia1_config/../output/strategia1/100%25/statistic.xml"/>
    </output>

    <time>
        <step-length value="1"/>
    </time>

    <processing>
        <ignore-route-errors value="false"/>
        <time-to-teleport value="-1"/>
    </processing>

    <report>
        <verbose value="true"/>
        <xml-validation value="never"/>
    </report>

    <traci_server>
        <remote-port value="56612"/>
    </traci_server>

    <gui_only>
        <gui-settings-file value="./strategia1_config/../gui-settings.cfg"/>
        <start value="true"/>
    </gui_only>

</configuration>
-->

<tripinfos xmlns:xsi="http://www.w3.org/2001/XMLSchema-instance" xsi:noNamespaceSchemaLocation="http://sumo.dlr.de/xsd/tripinfo_file.xsd">
    <tripinfo id="116" depart="18240.00" departLane="48211196#5_0" departPos="5.10" departSpeed="0.00" departDelay="0.00" arrival="19119.00" arrivalLane="-8916792_0" arrivalPos="615.11" arrivalSpeed="9.39" duration="879.00" routeLength="5413.78" waitingTime="251.00" waitingCount="6" stopTime="0.00" timeLoss="326.97" rerouteNo="0" devices="vehroute_116 tripinfo_116 emissions_116" vType="vecType" speedFactor="0.88" vaporized="">
        <emissions CO_abs="64110.399039" CO2_abs="2015626.975684" HC_abs="338.183690" PMx_abs="35.349936" NOx_abs="827.681892" fuel_abs="642913.322419" electricity_abs="0"/>
    </tripinfo>
    <tripinfo id="130" depart="18300.00" departLane="23959829#0_0" departPos="5.10" departSpeed="0.00" departDelay="0.00" arrival="19218.00" arrivalLane="23959829#0_1" arrivalPos="45.86" arrivalSpeed="12.55" duration="918.00" routeLength="13452.06" waitingTime="202.00" waitingCount="8" stopTime="0.00" timeLoss="301.49" rerouteNo="5" devices="vehroute_130 tripinfo_130 emissions_130" vType="vecType" speedFactor="1.18" vaporized="">
        <emissions CO_abs="88387.484361" CO2_abs="3779329.464309" HC_abs="494.461763" PMx_abs="82.653624" NOx_abs="1492.595592" fuel_abs="1205445.537340" electricity_abs="0"/>
    </tripinfo>
    <tripinfo id="228" depart="19080.00" departLane="144489137#3_0" departPos="5.10" departSpeed="0.00" departDelay="0.00" arrival="19368.00" arrivalLane="254756525#26_0" arrivalPos="121.81" arrivalSpeed="13.38" duration="288.00" routeLength="1438.30" waitingTime="145.00" waitingCount="5" stopTime="0.00" timeLoss="183.85" rerouteNo="0" devices="vehroute_228 tripinfo_228 emissions_228" vType="vecType" speedFactor="1.24" vaporized="">
        <emissions CO_abs="31448.573186" CO2_abs="832055.546087" HC_abs="162.370873" PMx_abs="17.376286" NOx_abs="357.122408" fuel_abs="265396.279173" electricity_abs="0"/>
    </tripinfo>
    <tripinfo id="241" depart="19440.00" departLane="288065247#6_0" departPos="5.10" departSpeed="0.00" departDelay="0.00" arrival="19560.00" arrivalLane="254756525#26_0" arrivalPos="121.81" arrivalSpeed="11.25" duration="120.00" routeLength="910.21" waitingTime="32.00" waitingCount="1" stopTime="0.00" timeLoss="43.81" rerouteNo="0" devices="vehroute_241 tripinfo_241 emissions_241" vType="vecType" speedFactor="1.07" vaporized="">
        <emissions CO_abs="8379.644056" CO2_abs="310494.417991" HC_abs="45.244486" PMx_abs="5.407252" NOx_abs="126.143248" fuel_abs="99035.859519" electricity_abs="0"/>
    </tripinfo>
    <tripinfo id="177" depart="18600.00" departLane="-30029708#0_0" departPos="5.10" departSpeed="0.00" departDelay="0.00" arrival="19848.00" arrivalLane="-30029708#0_1" arrivalPos="94.58" arrivalSpeed="9.74" duration="1248.00" routeLength="13187.08" waitingTime="331.00" waitingCount="15" stopTime="0.00" timeLoss="453.51" rerouteNo="1" devices="vehroute_177 tripinfo_177 emissions_177" vType="vecType" speedFactor="0.98" vaporized="">
        <emissions CO_abs="98930.333568" CO2_abs="3940453.684618" HC_abs="543.485473" PMx_abs="76.792482" NOx_abs="1572.673459" fuel_abs="1256846.197739" electricity_abs="0"/>
    </tripinfo>
    <tripinfo id="243" depart="19440.00" departLane="-48211196#4_0" departPos="5.10" departSpeed="0.00" departDelay="0.00" arrival="20170.00" arrivalLane="133755930#1_0" arrivalPos="16.00" arrivalSpeed="12.55" duration="730.00" routeLength="4088.09" waitingTime="326.00" waitingCount="10" stopTime="0.00" timeLoss="411.33" rerouteNo="0" devices="vehroute_243 tripinfo_243 emissions_243" vType="vecType" speedFactor="1.15" vaporized="">
        <emissions CO_abs="71263.117018" CO2_abs="1981320.236001" HC_abs="369.813212" PMx_abs="39.789152" NOx_abs="839.768835" fuel_abs="631970.627683" electricity_abs="0"/>
    </tripinfo>
    <tripinfo id="302" depart="19800.00" departLane="-254758139#0_0" departPos="5.10" departSpeed="0.00" departDelay="0.00" arrival="20228.00" arrivalLane="-254758139#0_0" arrivalPos="68.19" arrivalSpeed="9.91" duration="428.00" routeLength="9394.24" waitingTime="22.00" waitingCount="1" stopTime="0.00" timeLoss="52.93" rerouteNo="1" devices="vehroute_302 tripinfo_302 emissions_302" vType="vecType" speedFactor="0.97" vaporized="">
        <emissions CO_abs="27736.314180" CO2_abs="2016147.344210" HC_abs="174.747427" PMx_abs="41.129530" NOx_abs="757.927790" fuel_abs="643057.523594" electricity_abs="0"/>
    </tripinfo>
    <tripinfo id="313" depart="19920.00" departLane="-111089307#4_0" departPos="5.10" departSpeed="0.00" departDelay="0.00" arrival="20322.00" arrivalLane="52432936#0_0" arrivalPos="124.42" arrivalSpeed="11.04" duration="402.00" routeLength="2900.94" waitingTime="103.00" waitingCount="3" stopTime="0.00" timeLoss="143.87" rerouteNo="0" devices="vehroute_313 tripinfo_313 emissions_313" vType="vecType" speedFactor="1.01" vaporized="">
        <emissions CO_abs="27312.922957" CO2_abs="972313.959458" HC_abs="146.816908" PMx_abs="17.077557" NOx_abs="397.476785" fuel_abs="310131.421398" electricity_abs="0"/>
    </tripinfo>
    <tripinfo id="136" depart="18360.00" departLane="31129765_0" departPos="5.10" departSpeed="0.00" departDelay="0.00" arrival="20433.00" arrivalLane="31129765_0" arrivalPos="639.51" arrivalSpeed="21.16" duration="2073.00" routeLength="8141.09" waitingTime="253.00" waitingCount="10" stopTime="1156.00" timeLoss="357.32" rerouteNo="2" devices="vehroute_136 tripinfo_136 emissions_136" vType="vecType" speedFactor="0.97" vaporized="">
        <emissions CO_abs="71564.856354" CO2_abs="2698637.300128" HC_abs="388.393845" PMx_abs="50.975392" NOx_abs="1093.499071" fuel_abs="860758.746668" electricity_abs="0"/>
    </tripinfo>
    <tripinfo id="312" depart="19860.00" departLane="8922307_0" departPos="5.10" departSpeed="0.00" departDelay="0.00" arrival="20452.00" arrivalLane="254756525#26_0" arrivalPos="121.81" arrivalSpeed="9.78" duration="592.00" routeLength="3140.72" waitingTime="247.00" waitingCount="7" stopTime="0.00" timeLoss="300.89" rerouteNo="0" devices="vehroute_312 tripinfo_312 emissions_312" vType="vecType" speedFactor="0.97" vaporized="">
        <emissions CO_abs="54212.396896" CO2_abs="1471865.805622" HC_abs="280.926700" PMx_abs="28.403451" NOx_abs="619.671811" fuel_abs="469474.726978" electricity_abs="0"/>
    </tripinfo>
    <tripinfo id="322" depart="20040.00" departLane="99231460_0" departPos="5.10" departSpeed="0.00" departDelay="0.00" arrival="20504.00" arrivalLane="-8916792_0" arrivalPos="615.11" arrivalSpeed="11.94" duration="464.00" routeLength="3547.42" waitingTime="127.00" waitingCount="4" stopTime="0.00" timeLoss="170.24" rerouteNo="0" devices="vehroute_322 tripinfo_322 emissions_322" vType="vecType" speedFactor="1.08" vaporized="">
        <emissions CO_abs="31607.790790" CO2_abs="1166371.781101" HC_abs="170.599382" PMx_abs="20.235023" NOx_abs="472.915529" fuel_abs="372028.231741" electricity_abs="0"/>
    </tripinfo>
    <tripinfo id="318" depart="19980.00" departLane="-88572970_0" departPos="5.10" departSpeed="0.00" departDelay="0.00" arrival="20531.00" arrivalLane="-88572970_1" arrivalPos="108.68" arrivalSpeed="10.95" duration="551.00" routeLength="9249.43" waitingTime="85.00" waitingCount="5" stopTime="0.00" timeLoss="139.97" rerouteNo="1" devices="vehroute_318 tripinfo_318 emissions_318" vType="vecType" speedFactor="1.04" vaporized="">
        <emissions CO_abs="45641.551431" CO2_abs="2341791.307933" HC_abs="265.202931" PMx_abs="49.555078" NOx_abs="913.772249" fuel_abs="746928.072808" electricity_abs="0"/>
    </tripinfo>
    <tripinfo id="291" depart="19680.00" departLane="31129765_0" departPos="5.10" departSpeed="0.00" departDelay="0.00" arrival="20535.00" arrivalLane="31129765_0" arrivalPos="639.51" arrivalSpeed="22.63" duration="855.00" routeLength="14205.48" waitingTime="132.00" waitingCount="7" stopTime="0.00" timeLoss="208.76" rerouteNo="10" devices="vehroute_291 tripinfo_291 emissions_291" vType="vecType" speedFactor="1.03" vaporized="">
        <emissions CO_abs="66745.969420" CO2_abs="3536796.248543" HC_abs="389.773513" PMx_abs="72.997045" NOx_abs="1366.653604" fuel_abs="1128082.599390" electricity_abs="0"/>
    </tripinfo>
    <tripinfo id="323" depart="20040.00" departLane="254466686#4_0" departPos="5.10" departSpeed="0.00" departDelay="0.00" arrival="20543.00" arrivalLane="204967525_0" arrivalPos="146.26" arrivalSpeed="12.82" duration="503.00" routeLength="2968.19" waitingTime="234.00" waitingCount="7" stopTime="0.00" timeLoss="288.80" rerouteNo="4" devices="vehroute_323 tripinfo_323 emissions_323" vType="vecType" speedFactor="1.24" vaporized="">
        <emissions CO_abs="50181.756895" CO2_abs="1421878.324142" HC_abs="260.555742" PMx_abs="28.633296" NOx_abs="601.317152" fuel_abs="453527.865391" electricity_abs="0"/>
    </tripinfo>
    <tripinfo id="311" depart="19860.00" departLane="204884387#0_0" departPos="5.10" departSpeed="0.00" departDelay="0.00" arrival="20567.00" arrivalLane="204884387#0_0" arrivalPos="132.79" arrivalSpeed="11.35" duration="707.00" routeLength="10123.88" waitingTime="155.00" waitingCount="7" stopTime="0.00" timeLoss="229.14" rerouteNo="1" devices="vehroute_311 tripinfo_311 emissions_311" vType="vecType" speedFactor="1.05" vaporized="">
        <emissions CO_abs="61650.835802" CO2_abs="2813213.116951" HC_abs="349.028463" PMx_abs="58.917415" NOx_abs="1113.073066" fuel_abs="897294.356402" electricity_abs="0"/>
    </tripinfo>
    <tripinfo id="160" depart="18540.00" departLane="90077241_0" departPos="5.10" departSpeed="0.00" departDelay="0.00" arrival="20592.00" arrivalLane="90077241_0" arrivalPos="3225.35" arrivalSpeed="30.17" duration="2052.00" routeLength="11927.63" waitingTime="97.00" waitingCount="3" stopTime="1444.00" timeLoss="158.39" rerouteNo="2" devices="vehroute_160 tripinfo_160 emissions_160" vType="vecType" speedFactor="1.08" vaporized="">
        <emissions CO_abs="60813.972848" CO2_abs="3086584.526223" HC_abs="353.863856" PMx_abs="68.994498" NOx_abs="1205.962944" fuel_abs="984482.268216" electricity_abs="0"/>
    </tripinfo>
    <tripinfo id="242" depart="19440.00" departLane="225806031#0_0" departPos="5.10" departSpeed="0.00" departDelay="0.00" arrival="20602.00" arrivalLane="225806031#0_0" arrivalPos="142.16" arrivalSpeed="13.22" duration="1162.00" routeLength="13539.40" waitingTime="373.00" waitingCount="17" stopTime="0.00" timeLoss="516.71" rerouteNo="4" devices="vehroute_242 tripinfo_242 emissions_242" vType="vecType" speedFactor="1.21" vaporized="">
        <emissions CO_abs="124548.431760" CO2_abs="4533600.454252" HC_abs="676.555122" PMx_abs="100.418805" NOx_abs="1843.666758" fuel_abs="1446032.731189" electricity_abs="0"/>
    </tripinfo>
    <tripinfo id="231" depart="19140.00" departLane="-254297762#2_0" departPos="5.10" departSpeed="0.00" departDelay="0.00" arrival="20761.00" arrivalLane="-254297762#2_0" arrivalPos="291.17" arrivalSpeed="10.95" duration="1621.00" routeLength="15873.27" waitingTime="428.00" waitingCount="21" stopTime="0.00" timeLoss="594.06" rerouteNo="6" devices="vehroute_231 tripinfo_231 emissions_231" vType="vecType" speedFactor="0.99" vaporized="">
        <emissions CO_abs="125662.567311" CO2_abs="4863968.635959" HC_abs="687.182764" PMx_abs="93.495376" NOx_abs="1952.184717" fuel_abs="1551412.780095" electricity_abs="0"/>
    </tripinfo>
    <tripinfo id="326" depart="20100.00" departLane="88466052#1_0" departPos="5.10" departSpeed="0.00" departDelay="0.00" arrival="20812.00" arrivalLane="88466052#1_0" arrivalPos="202.96" arrivalSpeed="9.45" duration="712.00" routeLength="9458.72" waitingTime="172.00" waitingCount="8" stopTime="0.00" timeLoss="238.23" rerouteNo="1" devices="vehroute_326 tripinfo_326 emissions_326" vType="vecType" speedFactor="0.94" vaporized="">
        <emissions CO_abs="56088.100142" CO2_abs="2502909.709651" HC_abs="315.032786" PMx_abs="50.499227" NOx_abs="985.195305" fuel_abs="798323.071805" electricity_abs="0"/>
    </tripinfo>
    <tripinfo id="332" depart="20400.00" departLane="-242896157#0_0" departPos="5.10" departSpeed="0.00" departDelay="0.00" arrival="20894.00" arrivalLane="-242896157#0_1" arrivalPos="109.29" arrivalSpeed="9.78" duration="494.00" routeLength="8698.52" waitingTime="38.00" waitingCount="2" stopTime="0.00" timeLoss="73.44" rerouteNo="1" devices="vehroute_332 tripinfo_332 emissions_332" vType="vecType" speedFactor="0.90" vaporized="">
        <emissions CO_abs="26726.842985" CO2_abs="1876182.691200" HC_abs="165.352964" PMx_abs="35.205696" NOx_abs="703.010090" fuel_abs="598417.751144" electricity_abs="0"/>
    </tripinfo>
    <tripinfo id="169" depart="18540.00" departLane="-27029200#2_0" departPos="5.10" departSpeed="0.00" departDelay="0.00" arrival="20916.00" arrivalLane="-27029200#2_0" arrivalPos="66.62" arrivalSpeed="10.36" duration="2376.00" routeLength="7187.60" waitingTime="362.00" waitingCount="15" stopTime="1302.00" timeLoss="498.77" rerouteNo="2" devices="vehroute_169 tripinfo_169 emissions_169" vType="vecType" speedFactor="1.02" vaporized="">
        <emissions CO_abs="91497.058230" CO2_abs="2944925.989357" HC_abs="484.969221" PMx_abs="56.168531" NOx_abs="1224.542374" fuel_abs="939321.181047" electricity_abs="0"/>
    </tripinfo>
    <tripinfo id="164" depart="18540.00" departLane="8916767#0_0" departPos="5.10" departSpeed="0.00" departDelay="0.00" arrival="20921.00" arrivalLane="8916767#0_0" arrivalPos="129.66" arrivalSpeed="9.74" duration="2381.00" routeLength="7660.27" waitingTime="323.00" waitingCount="13" stopTime="1177.00" timeLoss="472.84" rerouteNo="3" devices="vehroute_164 tripinfo_164 emissions_164" vType="vecType" speedFactor="0.94" vaporized="">
        <emissions CO_abs="89678.791150" CO2_abs="2915275.036482" HC_abs="475.594685" PMx_abs="52.348421" NOx_abs="1203.648690" fuel_abs="929865.866652" electricity_abs="0"/>
    </tripinfo>
    <tripinfo id="141" depart="18420.00" departLane="-206662304#13_0" departPos="5.10" departSpeed="0.00" departDelay="0.00" arrival="20928.00" arrivalLane="-206662304#13_0" arrivalPos="290.52" arrivalSpeed="9.68" duration="2508.00" routeLength="7842.95" waitingTime="374.00" waitingCount="18" stopTime="1258.00" timeLoss="516.85" rerouteNo="1" devices="vehroute_141 tripinfo_141 emissions_141" vType="vecType" speedFactor="0.96" vaporized="">
        <emissions CO_abs="96284.024284" CO2_abs="3046217.358983" HC_abs="508.788536" PMx_abs="55.519732" NOx_abs="1261.925498" fuel_abs="971632.455904" electricity_abs="0"/>
    </tripinfo>
    <tripinfo id="250" depart="19443.00" departLane="-24335483#9_0" departPos="5.10" departSpeed="0.00" departDelay="3.00" arrival="21016.00" arrivalLane="-24335483#9_0" arrivalPos="292.66" arrivalSpeed="8.76" duration="1573.00" routeLength="14375.42" waitingTime="408.00" waitingCount="14" stopTime="0.00" timeLoss="550.01" rerouteNo="4" devices="vehroute_250 tripinfo_250 emissions_250" vType="vecType" speedFactor="0.87" vaporized="">
        <emissions CO_abs="114330.939073" CO2_abs="4309039.899744" HC_abs="619.635831" PMx_abs="79.771719" NOx_abs="1720.610606" fuel_abs="1374416.437863" electricity_abs="0"/>
    </tripinfo>
    <tripinfo id="257" depart="19443.00" departLane="-23883761_0" departPos="5.10" departSpeed="0.00" departDelay="3.00" arrival="21158.00" arrivalLane="-23883761_0" arrivalPos="197.88" arrivalSpeed="9.61" duration="1715.00" routeLength="4801.77" waitingTime="154.00" waitingCount="8" stopTime="1002.00" timeLoss="235.02" rerouteNo="2" devices="vehroute_257 tripinfo_257 emissions_257" vType="vecType" speedFactor="0.90" vaporized="">
        <emissions CO_abs="46714.538980" CO2_abs="1604265.692217" HC_abs="249.555194" PMx_abs="27.569517" NOx_abs="654.939045" fuel_abs="511701.622217" electricity_abs="0"/>
    </tripinfo>
    <tripinfo id="298" depart="19800.00" departLane="-33789567_0" departPos="5.10" departSpeed="0.00" departDelay="0.00" arrival="21257.00" arrivalLane="-33789567_0" arrivalPos="30.18" arrivalSpeed="10.66" duration="1457.00" routeLength="3006.77" waitingTime="23.00" waitingCount="1" stopTime="1130.00" timeLoss="61.16" rerouteNo="1" devices="vehroute_298 tripinfo_298 emissions_298" vType="vecType" speedFactor="1.01" vaporized="">
        <emissions CO_abs="14089.890974" CO2_abs="790838.702438" HC_abs="82.282398" PMx_abs="11.950643" NOx_abs="310.062484" fuel_abs="252244.770655" electricity_abs="0"/>
    </tripinfo>
    <tripinfo id="269" depart="19500.00" departLane="-133755930#1_0" departPos="5.10" departSpeed="0.00" departDelay="0.00" arrival="21274.00" arrivalLane="-133755930#1_1" arrivalPos="16.00" arrivalSpeed="8.55" duration="1774.00" routeLength="4355.77" waitingTime="282.00" waitingCount="11" stopTime="960.00" timeLoss="362.64" rerouteNo="6" devices="vehroute_269 tripinfo_269 emissions_269" vType="vecType" speedFactor="0.86" vaporized="">
        <emissions CO_abs="68283.309032" CO2_abs="1861375.632305" HC_abs="353.778654" PMx_abs="34.815381" NOx_abs="778.881026" fuel_abs="593715.892836" electricity_abs="0"/>
    </tripinfo>
    <tripinfo id="293" depart="19740.00" departLane="-27570802#1_0" departPos="5.10" departSpeed="0.00" departDelay="0.00" arrival="21292.00" arrivalLane="-27570802#1_0" arrivalPos="269.14" arrivalSpeed="10.94" duration="1552.00" routeLength="15843.47" waitingTime="453.00" waitingCount="18" stopTime="0.00" timeLoss="621.06" rerouteNo="5" devices="vehroute_293 tripinfo_293 emissions_293" vType="vecType" speedFactor="1.09" vaporized="">
        <emissions CO_abs="134149.313221" CO2_abs="5070270.359124" HC_abs="731.306487" PMx_abs="102.972215" NOx_abs="2053.599539" fuel_abs="1617211.902242" electricity_abs="0"/>
    </tripinfo>
    <tripinfo id="149" depart="18480.00" departLane="133733582#2_0" departPos="5.10" departSpeed="0.00" departDelay="0.00" arrival="21293.00" arrivalLane="133733582#2_0" arrivalPos="149.99" arrivalSpeed="9.01" duration="2813.00" routeLength="6646.62" waitingTime="426.00" waitingCount="14" stopTime="1642.00" timeLoss="536.57" rerouteNo="1" devices="vehroute_149 tripinfo_149 emissions_149" vType="vecType" speedFactor="0.85" vaporized="">
        <emissions CO_abs="101299.380908" CO2_abs="2858406.857678" HC_abs="526.999999" PMx_abs="54.101863" NOx_abs="1193.302710" fuel_abs="911732.574146" electricity_abs="0"/>
    </tripinfo>
    <tripinfo id="277" depart="19503.00" departLane="90077241_0" departPos="5.10" departSpeed="0.00" departDelay="3.00" arrival="21316.00" arrivalLane="90077241_0" arrivalPos="3225.35" arrivalSpeed="25.13" duration="1813.00" routeLength="11348.91" waitingTime="45.00" waitingCount="2" stopTime="1212.00" timeLoss="86.97" rerouteNo="1" devices="vehroute_277 tripinfo_277 emissions_277" vType="vecType" speedFactor="0.90" vaporized="">
        <emissions CO_abs="33805.719103" CO2_abs="2401076.871378" HC_abs="209.986692" PMx_abs="46.287838" NOx_abs="902.459534" fuel_abs="765834.170518" electricity_abs="0"/>
    </tripinfo>
    <tripinfo id="159" depart="18540.00" departLane="28805009#5_0" departPos="5.10" departSpeed="0.00" departDelay="0.00" arrival="21443.00" arrivalLane="28805009#5_0" arrivalPos="49.78" arrivalSpeed="10.32" duration="2903.00" routeLength="3704.12" waitingTime="135.00" waitingCount="5" stopTime="2362.00" timeLoss="198.59" rerouteNo="1" devices="vehroute_159 tripinfo_159 emissions_159" vType="vecType" speedFactor="0.97" vaporized="">
        <emissions CO_abs="38400.029766" CO2_abs="1348288.850403" HC_abs="205.972376" PMx_abs="23.774896" NOx_abs="553.003439" fuel_abs="430053.333410" electricity_abs="0"/>
    </tripinfo>
    <tripinfo id="132" depart="18300.00" departLane="142972028#1_0" departPos="5.10" departSpeed="0.00" departDelay="0.00" arrival="21457.00" arrivalLane="142972028#1_0" arrivalPos="161.20" arrivalSpeed="10.89" duration="3157.00" routeLength="5610.84" waitingTime="79.00" waitingCount="4" stopTime="2567.00" timeLoss="148.33" rerouteNo="4" devices="vehroute_132 tripinfo_132 emissions_132" vType="vecType" speedFactor="1.01" vaporized="">
        <emissions CO_abs="32796.611330" CO2_abs="1620871.922460" HC_abs="186.715572" PMx_abs="27.623411" NOx_abs="647.938494" fuel_abs="516990.356215" electricity_abs="0"/>
    </tripinfo>
    <tripinfo id="342" depart="20880.00" departLane="-204884378#1_0" departPos="5.10" departSpeed="0.00" departDelay="0.00" arrival="21521.00" arrivalLane="-204884378#1_1" arrivalPos="41.26" arrivalSpeed="12.51" duration="641.00" routeLength="9230.93" waitingTime="203.00" waitingCount="6" stopTime="0.00" timeLoss="262.56" rerouteNo="1" devices="vehroute_342 tripinfo_342 emissions_342" vType="vecType" speedFactor="1.13" vaporized="">
        <emissions CO_abs="71149.653850" CO2_abs="2764143.725891" HC_abs="391.973627" PMx_abs="62.347301" NOx_abs="1102.577507" fuel_abs="881646.550414" electricity_abs="0"/>
    </tripinfo>
    <tripinfo id="134" depart="18360.00" departLane="8916767#0_0" departPos="5.10" departSpeed="0.00" departDelay="0.00" arrival="21536.00" arrivalLane="8916767#0_0" arrivalPos="129.66" arrivalSpeed="10.81" duration="3176.00" routeLength="7716.61" waitingTime="333.00" waitingCount="16" stopTime="2005.00" timeLoss="477.17" rerouteNo="3" devices="vehroute_134 tripinfo_134 emissions_134" vType="vecType" speedFactor="0.99" vaporized="">
        <emissions CO_abs="88468.616516" CO2_abs="2926304.836149" HC_abs="470.452205" PMx_abs="52.772319" NOx_abs="1206.469084" fuel_abs="933383.004782" electricity_abs="0"/>
    </tripinfo>
    <tripinfo id="166" depart="18546.00" departLane="90077241_0" departPos="5.10" departSpeed="0.00" departDelay="6.00" arrival="21565.00" arrivalLane="90077241_0" arrivalPos="3225.35" arrivalSpeed="25.65" duration="3019.00" routeLength="11564.84" waitingTime="59.00" waitingCount="4" stopTime="2373.00" timeLoss="115.52" rerouteNo="1" devices="vehroute_166 tripinfo_166 emissions_166" vType="vecType" speedFactor="0.91" vaporized="">
        <emissions CO_abs="39990.207797" CO2_abs="2600821.183121" HC_abs="243.557494" PMx_abs="50.799406" NOx_abs="989.124819" fuel_abs="829544.601627" electricity_abs="0"/>
    </tripinfo>
    <tripinfo id="180" depart="18600.00" departLane="225806031#0_0" departPos="5.10" departSpeed="0.00" departDelay="0.00" arrival="21596.00" arrivalLane="225806031#0_0" arrivalPos="142.16" arrivalSpeed="10.34" duration="2996.00" routeLength="6166.55" waitingTime="500.00" waitingCount="17" stopTime="1842.00" timeLoss="622.31" rerouteNo="5" devices="vehroute_180 tripinfo_180 emissions_180" vType="vecType" speedFactor="1.03" vaporized="">
        <emissions CO_abs="109144.511965" CO2_abs="2971281.786665" HC_abs="565.761380" PMx_abs="58.049675" NOx_abs="1252.469445" fuel_abs="947736.289121" electricity_abs="0"/>
    </tripinfo>
    <tripinfo id="214" depart="18972.00" departLane="90077241_0" departPos="5.10" departSpeed="0.00" departDelay="12.00" arrival="21635.00" arrivalLane="90077241_0" arrivalPos="3225.35" arrivalSpeed="29.08" duration="2663.00" routeLength="13046.53" waitingTime="210.00" waitingCount="6" stopTime="1761.00" timeLoss="292.98" rerouteNo="1" devices="vehroute_214 tripinfo_214 emissions_214" vType="vecType" speedFactor="1.00" vaporized="">
        <emissions CO_abs="77492.320379" CO2_abs="3554284.903169" HC_abs="438.781655" PMx_abs="74.120921" NOx_abs="1396.548311" fuel_abs="1133665.082348" electricity_abs="0"/>
    </tripinfo>
    <tripinfo id="155" depart="18480.00" departLane="-133755930#1_0" departPos="5.10" departSpeed="0.00" departDelay="0.00" arrival="21704.00" arrivalLane="-133755930#1_1" arrivalPos="16.00" arrivalSpeed="10.32" duration="3224.00" routeLength="4091.91" waitingTime="249.00" waitingCount="9" stopTime="2526.00" timeLoss="330.37" rerouteNo="1" devices="vehroute_155 tripinfo_155 emissions_155" vType="vecType" speedFactor="1.00" vaporized="">
        <emissions CO_abs="59523.939511" CO2_abs="1746864.298281" HC_abs="311.530127" PMx_abs="33.217750" NOx_abs="731.781093" fuel_abs="557187.364512" electricity_abs="0"/>
    </tripinfo>
    <tripinfo id="253" depart="19440.00" departLane="-27167281#1_0" departPos="5.10" departSpeed="0.00" departDelay="0.00" arrival="21771.00" arrivalLane="-27167281#1_0" arrivalPos="192.19" arrivalSpeed="10.07" duration="2331.00" routeLength="6961.73" waitingTime="347.00" waitingCount="13" stopTime="1303.00" timeLoss="463.12" rerouteNo="6" devices="vehroute_253 tripinfo_253 emissions_253" vType="vecType" speedFactor="1.01" vaporized="">
        <emissions CO_abs="85345.999767" CO2_abs="2734695.041936" HC_abs="451.985631" PMx_abs="51.560424" NOx_abs="1132.713184" fuel_abs="872266.332284" electricity_abs="0"/>
    </tripinfo>
    <tripinfo id="246" depart="19440.00" departLane="31129765_0" departPos="5.10" departSpeed="0.00" departDelay="0.00" arrival="21793.00" arrivalLane="31129765_0" arrivalPos="639.51" arrivalSpeed="25.33" duration="2353.00" routeLength="6946.37" waitingTime="202.00" waitingCount="9" stopTime="1688.00" timeLoss="294.01" rerouteNo="1" devices="vehroute_246 tripinfo_246 emissions_246" vType="vecType" speedFactor="1.18" vaporized="">
        <emissions CO_abs="65087.684338" CO2_abs="2527438.130979" HC_abs="356.123938" PMx_abs="53.012467" NOx_abs="1040.908393" fuel_abs="806147.193032" electricity_abs="0"/>
    </tripinfo>
    <tripinfo id="184" depart="18600.00" departLane="224384035#0_0" departPos="5.10" departSpeed="0.00" departDelay="0.00" arrival="21843.00" arrivalLane="224384035#0_0" arrivalPos="123.84" arrivalSpeed="12.55" duration="3243.00" routeLength="6212.42" waitingTime="381.00" waitingCount="14" stopTime="2257.00" timeLoss="506.10" rerouteNo="3" devices="vehroute_184 tripinfo_184 emissions_184" vType="vecType" speedFactor="1.15" vaporized="">
        <emissions CO_abs="88449.966304" CO2_abs="2741762.294780" HC_abs="465.080604" PMx_abs="52.813714" NOx_abs="1145.827505" fuel_abs="874520.731342" electricity_abs="0"/>
    </tripinfo>
    <tripinfo id="403" depart="21420.00" departLane="99231460_0" departPos="5.10" departSpeed="0.00" departDelay="0.00" arrival="21862.00" arrivalLane="-8916792_0" arrivalPos="615.11" arrivalSpeed="10.43" duration="442.00" routeLength="3547.42" waitingTime="70.00" waitingCount="4" stopTime="0.00" timeLoss="118.67" rerouteNo="0" devices="vehroute_403 tripinfo_403 emissions_403" vType="vecType" speedFactor="0.98" vaporized="">
        <emissions CO_abs="23660.013222" CO2_abs="1009545.225854" HC_abs="130.869135" PMx_abs="16.038915" NOx_abs="401.631005" fuel_abs="322005.724423" electricity_abs="0"/>
    </tripinfo>
    <tripinfo id="378" depart="21300.00" departLane="8920734_0" departPos="5.10" departSpeed="0.00" departDelay="0.00" arrival="21889.00" arrivalLane="-8916792_0" arrivalPos="615.11" arrivalSpeed="10.60" duration="589.00" routeLength="3956.45" waitingTime="176.00" waitingCount="6" stopTime="0.00" timeLoss="232.39" rerouteNo="0" devices="vehroute_378 tripinfo_378 emissions_378" vType="vecType" speedFactor="0.99" vaporized="">
        <emissions CO_abs="43403.989985" CO2_abs="1419951.350300" HC_abs="230.382698" PMx_abs="25.307625" NOx_abs="582.737455" fuel_abs="452912.672663" electricity_abs="0"/>
    </tripinfo>
    <tripinfo id="100" depart="18180.00" departLane="90077241_0" departPos="5.10" departSpeed="0.00" departDelay="0.00" arrival="22019.00" arrivalLane="90077241_0" arrivalPos="3225.35" arrivalSpeed="30.14" duration="3839.00" routeLength="12716.69" waitingTime="202.00" waitingCount="7" stopTime="3011.00" timeLoss="277.29" rerouteNo="6" devices="vehroute_100 tripinfo_100 emissions_100" vType="vecType" speedFactor="1.06" vaporized="">
        <emissions CO_abs="80300.600646" CO2_abs="3533488.225022" HC_abs="452.203847" PMx_abs="77.017772" NOx_abs="1397.167279" fuel_abs="1127031.145194" electricity_abs="0"/>
    </tripinfo>