<?xml version="1.0" encoding="UTF-8"?>

<!-- generated on 2022-12-24 13:09:17 by Eclipse SUMO sumo Version 1.14.1
<configuration xmlns:xsi="http://www.w3.org/2001/XMLSchema-instance" xsi:noNamespaceSchemaLocation="http://sumo.dlr.de/xsd/sumoConfiguration.xsd">

    <input>
        <net-file value="./strategia1_config/../san_francisco.net.xml"/>
        <route-files value="./strategia1_config/../san_francisco.rou.xml"/>
        <additional-files value="./strategia1_config/../san_francisco.poly.xml,./strategia1_config/../parking_capacity_100%25/off_parking_100%25.add.xml,./strategia1_config/../parking_capacity_100%25/on_parking_100%25.add.xml"/>
    </input>

    <output>
        <emission-output value="./strategia1_config/../output/strategia1/100%25/emissions.xml"/>
        <tripinfo-output value="./strategia1_config/../output/strategia1/100%25/tripinfo.xml"/>
        <vehroute-output value="./strategia1_config/../output/strategia1/100%25/vehroute.xml"/>
        <stop-output value="./strategia1_config/../output/strategia1/100%25/stops.xml"/>
        <collision-output value="./strategia1_config/../output/strategia1/100%25/collision.xml"/>
        <statistic-output value="./strategia1_config/../output/strategia1/100%25/statistic.xml"/>
    </output>

    <time>
        <step-length value="1"/>
    </time>

    <processing>
        <ignore-route-errors value="false"/>
    </processing>

    <report>
        <verbose value="true"/>
        <xml-validation value="never"/>
    </report>

    <traci_server>
        <remote-port value="51915"/>
    </traci_server>

    <gui_only>
        <gui-settings-file value="./strategia1_config/../gui-settings.cfg"/>
        <start value="true"/>
    </gui_only>

</configuration>
-->

<tripinfos xmlns:xsi="http://www.w3.org/2001/XMLSchema-instance" xsi:noNamespaceSchemaLocation="http://sumo.dlr.de/xsd/tripinfo_file.xsd">
    <tripinfo id="30" depart="18000.00" departLane="-91181760#0_0" departPos="5.10" departSpeed="0.00" departDelay="0.00" arrival="18420.00" arrivalLane="-91181760#0_0" arrivalPos="79.70" arrivalSpeed="12.48" duration="420.00" routeLength="3660.42" waitingTime="1.00" waitingCount="1" stopTime="100.00" timeLoss="42.10" rerouteNo="2" devices="vehroute_30 tripinfo_30 emissions_30" vType="vecType" speedFactor="1.18" vaporized="">
        <emissions CO_abs="11915.471104" CO2_abs="956321.532086" HC_abs="75.786513" PMx_abs="15.118278" NOx_abs="375.885482" fuel_abs="305023.057450" electricity_abs="0"/>
    </tripinfo>
    <tripinfo id="1" depart="18000.00" departLane="31129765_0" departPos="5.10" departSpeed="0.00" departDelay="0.00" arrival="18441.00" arrivalLane="31129765_0" arrivalPos="639.51" arrivalSpeed="19.90" duration="441.00" routeLength="4341.32" waitingTime="33.00" waitingCount="2" stopTime="100.00" timeLoss="72.91" rerouteNo="2" devices="vehroute_1 tripinfo_1 emissions_1" vType="vecType" speedFactor="0.94" vaporized="">
        <emissions CO_abs="19944.129813" CO2_abs="1182119.321139" HC_abs="117.508965" PMx_abs="21.528981" NOx_abs="466.961897" fuel_abs="377043.333665" electricity_abs="0"/>
    </tripinfo>
    <tripinfo id="45" depart="18060.00" departLane="31129765_0" departPos="5.10" departSpeed="0.00" departDelay="0.00" arrival="18464.00" arrivalLane="31129765_0" arrivalPos="639.51" arrivalSpeed="23.33" duration="404.00" routeLength="4234.28" waitingTime="40.00" waitingCount="1" stopTime="100.00" timeLoss="80.93" rerouteNo="2" devices="vehroute_45 tripinfo_45 emissions_45" vType="vecType" speedFactor="1.09" vaporized="">
        <emissions CO_abs="23010.820282" CO2_abs="1285625.040377" HC_abs="135.114360" PMx_abs="25.745077" NOx_abs="518.035214" fuel_abs="410055.863838" electricity_abs="0"/>
    </tripinfo>
    <tripinfo id="60" depart="18060.00" departLane="8916792_0" departPos="5.10" departSpeed="0.00" departDelay="0.00" arrival="18577.00" arrivalLane="8916792_0" arrivalPos="615.11" arrivalSpeed="11.52" duration="517.00" routeLength="3743.73" waitingTime="53.00" waitingCount="3" stopTime="100.00" timeLoss="107.62" rerouteNo="2" devices="vehroute_60 tripinfo_60 emissions_60" vType="vecType" speedFactor="1.08" vaporized="">
        <emissions CO_abs="20189.466848" CO2_abs="999033.747628" HC_abs="114.513142" PMx_abs="15.637152" NOx_abs="393.619305" fuel_abs="318651.358135" electricity_abs="0"/>
    </tripinfo>
    <tripinfo id="21" depart="18000.00" departLane="27167762_0" departPos="5.10" departSpeed="0.00" departDelay="0.00" arrival="18644.00" arrivalLane="27167762_0" arrivalPos="139.02" arrivalSpeed="21.84" duration="644.00" routeLength="5201.43" waitingTime="134.00" waitingCount="6" stopTime="100.00" timeLoss="198.25" rerouteNo="2" devices="vehroute_21 tripinfo_21 emissions_21" vType="vecType" speedFactor="1.01" vaporized="">
        <emissions CO_abs="43083.725870" CO2_abs="1772481.166638" HC_abs="237.923939" PMx_abs="34.055479" NOx_abs="722.249395" fuel_abs="565348.509283" electricity_abs="0"/>
    </tripinfo>
    <tripinfo id="76" depart="18120.00" departLane="225806031#0_0" departPos="5.10" departSpeed="0.00" departDelay="0.00" arrival="18665.00" arrivalLane="225806031#0_0" arrivalPos="142.16" arrivalSpeed="11.42" duration="545.00" routeLength="3181.76" waitingTime="119.00" waitingCount="5" stopTime="100.00" timeLoss="171.07" rerouteNo="2" devices="vehroute_76 tripinfo_76 emissions_76" vType="vecType" speedFactor="1.03" vaporized="">
        <emissions CO_abs="33102.529495" CO2_abs="1191480.123335" HC_abs="178.263448" PMx_abs="21.506978" NOx_abs="490.641614" fuel_abs="380036.252796" electricity_abs="0"/>
    </tripinfo>
    <tripinfo id="28" depart="18009.00" departLane="90077241_0" departPos="5.10" departSpeed="0.00" departDelay="9.00" arrival="18668.00" arrivalLane="90077241_0" arrivalPos="3225.35" arrivalSpeed="32.14" duration="659.00" routeLength="11976.91" waitingTime="65.00" waitingCount="2" stopTime="100.00" timeLoss="125.61" rerouteNo="3" devices="vehroute_28 tripinfo_28 emissions_28" vType="vecType" speedFactor="1.13" vaporized="">
        <emissions CO_abs="61356.000133" CO2_abs="3135084.957593" HC_abs="357.685426" PMx_abs="72.172911" NOx_abs="1230.704819" fuel_abs="999949.584665" electricity_abs="0"/>
    </tripinfo>
    <tripinfo id="93" depart="18120.00" departLane="-254758121#2_0" departPos="5.10" departSpeed="0.00" departDelay="0.00" arrival="18673.00" arrivalLane="-254758121#2_0" arrivalPos="99.35" arrivalSpeed="10.01" duration="553.00" routeLength="3841.81" waitingTime="34.00" waitingCount="1" stopTime="100.00" timeLoss="79.71" rerouteNo="4" devices="vehroute_93 tripinfo_93 emissions_93" vType="vecType" speedFactor="0.92" vaporized="">
        <emissions CO_abs="20237.732992" CO2_abs="1036160.944970" HC_abs="115.825267" PMx_abs="15.558971" NOx_abs="407.889344" fuel_abs="330493.437744" electricity_abs="0"/>
    </tripinfo>
    <tripinfo id="74" depart="18120.00" departLane="144489137#0_0" departPos="5.10" departSpeed="0.00" departDelay="0.00" arrival="18720.00" arrivalLane="144489137#0_0" arrivalPos="135.49" arrivalSpeed="10.41" duration="600.00" routeLength="2773.20" waitingTime="186.00" waitingCount="9" stopTime="100.00" timeLoss="245.53" rerouteNo="4" devices="vehroute_74 tripinfo_74 emissions_74" vType="vecType" speedFactor="0.96" vaporized="">
        <emissions CO_abs="44644.517899" CO2_abs="1278404.110012" HC_abs="232.899426" PMx_abs="24.597723" NOx_abs="538.059995" fuel_abs="407765.581233" electricity_abs="0"/>
    </tripinfo>
    <tripinfo id="10" depart="18000.00" departLane="90077241_0" departPos="5.10" departSpeed="0.00" departDelay="0.00" arrival="18730.00" arrivalLane="90077241_0" arrivalPos="3225.35" arrivalSpeed="30.53" duration="730.00" routeLength="11810.95" waitingTime="93.00" waitingCount="5" stopTime="100.00" timeLoss="170.97" rerouteNo="2" devices="vehroute_10 tripinfo_10 emissions_10" vType="vecType" speedFactor="1.09" vaporized="">
        <emissions CO_abs="62612.333446" CO2_abs="3092293.782939" HC_abs="361.949437" PMx_abs="69.015249" NOx_abs="1209.318607" fuel_abs="986304.259574" electricity_abs="0"/>
    </tripinfo>
    <tripinfo id="49" depart="18063.00" departLane="31129765_0" departPos="5.10" departSpeed="0.00" departDelay="3.00" arrival="18744.00" arrivalLane="31129765_0" arrivalPos="639.51" arrivalSpeed="18.10" duration="681.00" routeLength="12944.78" waitingTime="0.00" waitingCount="0" stopTime="100.00" timeLoss="35.05" rerouteNo="2" devices="vehroute_49 tripinfo_49 emissions_49" vType="vecType" speedFactor="0.85" vaporized="">
        <emissions CO_abs="22940.859677" CO2_abs="2480161.498046" HC_abs="159.659201" PMx_abs="44.897117" NOx_abs="896.304614" fuel_abs="791054.676876" electricity_abs="0"/>
    </tripinfo>
    <tripinfo id="16" depart="18006.00" departLane="90077241_0" departPos="5.10" departSpeed="0.00" departDelay="6.00" arrival="18779.00" arrivalLane="90077241_0" arrivalPos="3225.35" arrivalSpeed="24.55" duration="773.00" routeLength="11625.26" waitingTime="91.00" waitingCount="2" stopTime="100.00" timeLoss="148.79" rerouteNo="2" devices="vehroute_16 tripinfo_16 emissions_16" vType="vecType" speedFactor="0.88" vaporized="">
        <emissions CO_abs="42788.493927" CO2_abs="2660664.401359" HC_abs="255.833700" PMx_abs="51.110790" NOx_abs="1007.440601" fuel_abs="848633.419796" electricity_abs="0"/>
    </tripinfo>
    <tripinfo id="33" depart="18000.00" departLane="144489137#0_0" departPos="5.10" departSpeed="0.00" departDelay="0.00" arrival="18780.00" arrivalLane="144489137#0_0" arrivalPos="135.49" arrivalSpeed="12.67" duration="780.00" routeLength="3872.00" waitingTime="296.00" waitingCount="13" stopTime="100.00" timeLoss="387.30" rerouteNo="2" devices="vehroute_33 tripinfo_33 emissions_33" vType="vecType" speedFactor="1.17" vaporized="">
        <emissions CO_abs="66419.760101" CO2_abs="1893218.208828" HC_abs="345.495615" PMx_abs="37.505885" NOx_abs="798.006306" fuel_abs="603868.752464" electricity_abs="0"/>
    </tripinfo>
    <tripinfo id="47" depart="18060.00" departLane="90077241_0" departPos="5.10" departSpeed="0.00" departDelay="0.00" arrival="18793.00" arrivalLane="90077241_0" arrivalPos="3225.35" arrivalSpeed="26.11" duration="733.00" routeLength="11565.45" waitingTime="56.00" waitingCount="3" stopTime="100.00" timeLoss="98.73" rerouteNo="2" devices="vehroute_47 tripinfo_47 emissions_47" vType="vecType" speedFactor="0.90" vaporized="">
        <emissions CO_abs="37966.518058" CO2_abs="2548790.549780" HC_abs="232.128407" PMx_abs="49.277057" NOx_abs="963.759696" fuel_abs="812948.841304" electricity_abs="0"/>
    </tripinfo>
    <tripinfo id="36" depart="18009.00" departLane="123867455_0" departPos="5.10" departSpeed="0.00" departDelay="9.00" arrival="18794.00" arrivalLane="123867455_0" arrivalPos="904.85" arrivalSpeed="27.60" duration="785.00" routeLength="5901.75" waitingTime="218.00" waitingCount="7" stopTime="100.00" timeLoss="301.30" rerouteNo="4" devices="vehroute_36 tripinfo_36 emissions_36" vType="vecType" speedFactor="0.97" vaporized="">
        <emissions CO_abs="60592.526021" CO2_abs="2131375.224380" HC_abs="326.244558" PMx_abs="42.761948" NOx_abs="878.114762" fuel_abs="679824.629546" electricity_abs="0"/>
    </tripinfo>
    <tripinfo id="31" depart="18006.00" departLane="123867455_0" departPos="5.10" departSpeed="0.00" departDelay="6.00" arrival="18807.00" arrivalLane="123867455_0" arrivalPos="904.85" arrivalSpeed="32.53" duration="801.00" routeLength="7632.90" waitingTime="130.00" waitingCount="7" stopTime="100.00" timeLoss="236.81" rerouteNo="2" devices="vehroute_31 tripinfo_31 emissions_31" vType="vecType" speedFactor="1.15" vaporized="">
        <emissions CO_abs="50208.916341" CO2_abs="2344888.285268" HC_abs="283.072676" PMx_abs="44.582263" NOx_abs="944.106194" fuel_abs="747919.565427" electricity_abs="0"/>
    </tripinfo>
    <tripinfo id="68" depart="18060.00" departLane="27167762_0" departPos="5.10" departSpeed="0.00" departDelay="0.00" arrival="18807.00" arrivalLane="27167762_0" arrivalPos="139.02" arrivalSpeed="22.43" duration="747.00" routeLength="5366.29" waitingTime="209.00" waitingCount="7" stopTime="100.00" timeLoss="295.54" rerouteNo="2" devices="vehroute_68 tripinfo_68 emissions_68" vType="vecType" speedFactor="1.04" vaporized="">
        <emissions CO_abs="56978.413322" CO2_abs="2058329.391820" HC_abs="307.279071" PMx_abs="40.503121" NOx_abs="850.926151" fuel_abs="656525.077500" electricity_abs="0"/>
    </tripinfo>
    <tripinfo id="116" depart="18240.00" departLane="48211196#5_0" departPos="5.10" departSpeed="0.00" departDelay="0.00" arrival="18835.00" arrivalLane="-8916792_0" arrivalPos="615.11" arrivalSpeed="11.41" duration="595.00" routeLength="5413.78" waitingTime="97.00" waitingCount="4" stopTime="0.00" timeLoss="161.63" rerouteNo="0" devices="vehroute_116 tripinfo_116 emissions_116" vType="vecType" speedFactor="1.12" vaporized="">
        <emissions CO_abs="31996.415966" CO2_abs="1556043.693058" HC_abs="180.817669" PMx_abs="25.379434" NOx_abs="618.087659" fuel_abs="496314.269017" electricity_abs="0"/>
    </tripinfo>
    <tripinfo id="13" depart="18003.00" departLane="90077241_0" departPos="5.10" departSpeed="0.00" departDelay="3.00" arrival="18837.00" arrivalLane="90077241_0" arrivalPos="3225.35" arrivalSpeed="32.34" duration="834.00" routeLength="12752.38" waitingTime="140.00" waitingCount="5" stopTime="100.00" timeLoss="214.30" rerouteNo="2" devices="vehroute_13 tripinfo_13 emissions_13" vType="vecType" speedFactor="1.12" vaporized="">
        <emissions CO_abs="75047.097862" CO2_abs="3485036.274019" HC_abs="427.794367" PMx_abs="77.887674" NOx_abs="1369.938799" fuel_abs="1111573.875911" electricity_abs="0"/>
    </tripinfo>
    <tripinfo id="20" depart="18000.00" departLane="123867455_0" departPos="5.10" departSpeed="0.00" departDelay="0.00" arrival="18838.00" arrivalLane="123867455_0" arrivalPos="904.85" arrivalSpeed="29.09" duration="838.00" routeLength="6690.85" waitingTime="212.00" waitingCount="9" stopTime="100.00" timeLoss="301.85" rerouteNo="2" devices="vehroute_20 tripinfo_20 emissions_20" vType="vecType" speedFactor="1.02" vaporized="">
        <emissions CO_abs="62651.350873" CO2_abs="2365550.205070" HC_abs="341.286522" PMx_abs="46.549248" NOx_abs="965.763447" fuel_abs="754515.617044" electricity_abs="0"/>
    </tripinfo>
    <tripinfo id="63" depart="18063.00" departLane="-204967525_0" departPos="5.10" departSpeed="0.00" departDelay="3.00" arrival="18839.00" arrivalLane="-204967525_1" arrivalPos="146.26" arrivalSpeed="10.45" duration="776.00" routeLength="4830.14" waitingTime="144.00" waitingCount="10" stopTime="100.00" timeLoss="238.19" rerouteNo="2" devices="vehroute_63 tripinfo_63 emissions_63" vType="vecType" speedFactor="0.99" vaporized="">
        <emissions CO_abs="45405.604969" CO2_abs="1654845.308117" HC_abs="244.889469" PMx_abs="28.576508" NOx_abs="674.212854" fuel_abs="527832.936295" electricity_abs="0"/>
    </tripinfo>
    <tripinfo id="77" depart="18120.00" departLane="90077241_0" departPos="5.10" departSpeed="0.00" departDelay="0.00" arrival="18840.00" arrivalLane="90077241_0" arrivalPos="3225.35" arrivalSpeed="27.99" duration="720.00" routeLength="11810.95" waitingTime="49.00" waitingCount="4" stopTime="100.00" timeLoss="110.80" rerouteNo="2" devices="vehroute_77 tripinfo_77 emissions_77" vType="vecType" speedFactor="0.98" vaporized="">
        <emissions CO_abs="44307.823396" CO2_abs="2764563.904168" HC_abs="269.154674" PMx_abs="56.771001" NOx_abs="1055.146210" fuel_abs="881770.556637" electricity_abs="0"/>
    </tripinfo>
    <tripinfo id="15" depart="18000.00" departLane="-24310636#2_0" departPos="5.10" departSpeed="0.00" departDelay="0.00" arrival="18843.00" arrivalLane="-24310636#2_1" arrivalPos="108.36" arrivalSpeed="9.12" duration="843.00" routeLength="6010.81" waitingTime="130.00" waitingCount="8" stopTime="100.00" timeLoss="222.55" rerouteNo="2" devices="vehroute_15 tripinfo_15 emissions_15" vType="vecType" speedFactor="0.93" vaporized="">
        <emissions CO_abs="46580.403955" CO2_abs="1884782.285802" HC_abs="255.469451" PMx_abs="32.467879" NOx_abs="760.354235" fuel_abs="601171.337037" electricity_abs="0"/>
    </tripinfo>
    <tripinfo id="39" depart="18006.00" departLane="31129765_0" departPos="5.10" departSpeed="0.00" departDelay="6.00" arrival="18849.00" arrivalLane="31129765_0" arrivalPos="639.51" arrivalSpeed="20.02" duration="843.00" routeLength="6254.53" waitingTime="250.00" waitingCount="8" stopTime="100.00" timeLoss="326.66" rerouteNo="3" devices="vehroute_39 tripinfo_39 emissions_39" vType="vecType" speedFactor="0.90" vaporized="">
        <emissions CO_abs="64217.942706" CO2_abs="2206684.591031" HC_abs="343.112106" PMx_abs="43.189917" NOx_abs="905.049195" fuel_abs="703846.954487" electricity_abs="0"/>
    </tripinfo>
    <tripinfo id="114" depart="18240.00" departLane="-254758120#3_0" departPos="5.10" departSpeed="0.00" departDelay="0.00" arrival="18866.00" arrivalLane="-254758120#3_0" arrivalPos="147.41" arrivalSpeed="11.05" duration="626.00" routeLength="2576.52" waitingTime="246.00" waitingCount="7" stopTime="100.00" timeLoss="302.08" rerouteNo="3" devices="vehroute_114 tripinfo_114 emissions_114" vType="vecType" speedFactor="1.03" vaporized="">
        <emissions CO_abs="52717.766324" CO2_abs="1358742.199455" HC_abs="271.545257" PMx_abs="27.187547" NOx_abs="577.293819" fuel_abs="433392.865604" electricity_abs="0"/>
    </tripinfo>
    <tripinfo id="64" depart="18060.00" departLane="28319343#2_0" departPos="5.10" departSpeed="0.00" departDelay="0.00" arrival="18872.00" arrivalLane="28319343#2_0" arrivalPos="90.58" arrivalSpeed="10.16" duration="812.00" routeLength="9974.14" waitingTime="218.00" waitingCount="8" stopTime="0.00" timeLoss="285.50" rerouteNo="1" devices="vehroute_64 tripinfo_64 emissions_64" vType="vecType" speedFactor="0.94" vaporized="">
        <emissions CO_abs="64883.586916" CO2_abs="2761727.651355" HC_abs="360.290249" PMx_abs="54.610606" NOx_abs="1085.783650" fuel_abs="880877.691251" electricity_abs="0"/>
    </tripinfo>
    <tripinfo id="82" depart="18123.00" departLane="-133781749_0" departPos="5.10" departSpeed="0.00" departDelay="3.00" arrival="18873.00" arrivalLane="-133781749_0" arrivalPos="138.68" arrivalSpeed="10.33" duration="750.00" routeLength="5499.56" waitingTime="117.00" waitingCount="9" stopTime="100.00" timeLoss="220.62" rerouteNo="2" devices="vehroute_82 tripinfo_82 emissions_82" vType="vecType" speedFactor="1.02" vaporized="">
        <emissions CO_abs="43805.156446" CO2_abs="1815156.339101" HC_abs="241.563810" PMx_abs="32.555970" NOx_abs="738.141059" fuel_abs="578961.513721" electricity_abs="0"/>
    </tripinfo>
    <tripinfo id="56" depart="18066.00" departLane="31129765_0" departPos="5.10" departSpeed="0.00" departDelay="6.00" arrival="18879.00" arrivalLane="31129765_0" arrivalPos="639.51" arrivalSpeed="18.95" duration="813.00" routeLength="6622.27" waitingTime="191.00" waitingCount="5" stopTime="100.00" timeLoss="259.17" rerouteNo="2" devices="vehroute_56 tripinfo_56 emissions_56" vType="vecType" speedFactor="0.90" vaporized="">
        <emissions CO_abs="53878.766432" CO2_abs="2096515.702601" HC_abs="293.066170" PMx_abs="39.286003" NOx_abs="845.340151" fuel_abs="668704.947134" electricity_abs="0"/>
    </tripinfo>
    <tripinfo id="27" depart="18000.00" departLane="-8916048_0" departPos="5.10" departSpeed="0.00" departDelay="0.00" arrival="18888.00" arrivalLane="-8916048_0" arrivalPos="126.72" arrivalSpeed="9.88" duration="888.00" routeLength="6742.86" waitingTime="121.00" waitingCount="4" stopTime="100.00" timeLoss="210.32" rerouteNo="2" devices="vehroute_27 tripinfo_27 emissions_27" vType="vecType" speedFactor="0.95" vaporized="">
        <emissions CO_abs="45677.294090" CO2_abs="2023925.132576" HC_abs="254.611595" PMx_abs="34.086746" NOx_abs="812.221945" fuel_abs="645550.569341" electricity_abs="0"/>
    </tripinfo>
    <tripinfo id="2" depart="18000.00" departLane="142972028#1_0" departPos="5.10" departSpeed="0.00" departDelay="0.00" arrival="18939.00" arrivalLane="142972028#1_0" arrivalPos="161.20" arrivalSpeed="10.35" duration="939.00" routeLength="6951.71" waitingTime="160.00" waitingCount="11" stopTime="100.00" timeLoss="281.19" rerouteNo="3" devices="vehroute_2 tripinfo_2 emissions_2" vType="vecType" speedFactor="1.01" vaporized="">
        <emissions CO_abs="55211.496461" CO2_abs="2277537.693866" HC_abs="304.092336" PMx_abs="39.980325" NOx_abs="923.114235" fuel_abs="726443.466470" electricity_abs="0"/>
    </tripinfo>
    <tripinfo id="84" depart="18123.00" departLane="90077241_0" departPos="5.10" departSpeed="0.00" departDelay="3.00" arrival="18939.00" arrivalLane="90077241_0" arrivalPos="3225.35" arrivalSpeed="32.50" duration="816.00" routeLength="12280.95" waitingTime="167.00" waitingCount="7" stopTime="100.00" timeLoss="240.59" rerouteNo="2" devices="vehroute_84 tripinfo_84 emissions_84" vType="vecType" speedFactor="1.15" vaporized="">
        <emissions CO_abs="81353.309551" CO2_abs="3464895.643624" HC_abs="456.103064" PMx_abs="79.600267" NOx_abs="1373.379879" fuel_abs="1105151.880779" electricity_abs="0"/>
    </tripinfo>
    <tripinfo id="40" depart="18000.00" departLane="-206679802#4_0" departPos="5.10" departSpeed="0.00" departDelay="0.00" arrival="18960.00" arrivalLane="-206679802#4_0" arrivalPos="292.11" arrivalSpeed="11.13" duration="960.00" routeLength="6247.90" waitingTime="214.00" waitingCount="7" stopTime="100.00" timeLoss="317.19" rerouteNo="8" devices="vehroute_40 tripinfo_40 emissions_40" vType="vecType" speedFactor="1.03" vaporized="">
        <emissions CO_abs="59513.705512" CO2_abs="2174444.856077" HC_abs="321.207264" PMx_abs="38.329828" NOx_abs="889.432892" fuel_abs="693564.636911" electricity_abs="0"/>
    </tripinfo>
    <tripinfo id="73" depart="18120.00" departLane="-204967525_0" departPos="5.10" departSpeed="0.00" departDelay="0.00" arrival="18968.00" arrivalLane="-204967525_1" arrivalPos="146.26" arrivalSpeed="11.58" duration="848.00" routeLength="5090.57" waitingTime="221.00" waitingCount="8" stopTime="100.00" timeLoss="316.45" rerouteNo="2" devices="vehroute_73 tripinfo_73 emissions_73" vType="vecType" speedFactor="1.06" vaporized="">
        <emissions CO_abs="58429.679082" CO2_abs="2002959.998021" HC_abs="312.458899" PMx_abs="37.177542" NOx_abs="831.730530" fuel_abs="638867.674755" electricity_abs="0"/>
    </tripinfo>
    <tripinfo id="79" depart="18120.00" departLane="-24310636#2_0" departPos="5.10" departSpeed="0.00" departDelay="0.00" arrival="18973.00" arrivalLane="-24310636#2_1" arrivalPos="108.36" arrivalSpeed="11.53" duration="853.00" routeLength="6581.41" waitingTime="170.00" waitingCount="7" stopTime="100.00" timeLoss="262.40" rerouteNo="2" devices="vehroute_79 tripinfo_79 emissions_79" vType="vecType" speedFactor="1.09" vaporized="">
        <emissions CO_abs="52059.207557" CO2_abs="2150959.004030" HC_abs="286.702842" PMx_abs="39.284118" NOx_abs="875.932810" fuel_abs="686068.530744" electricity_abs="0"/>
    </tripinfo>
    <tripinfo id="104" depart="18180.00" departLane="8915254_0" departPos="5.10" departSpeed="0.00" departDelay="0.00" arrival="18974.00" arrivalLane="8915254_0" arrivalPos="317.12" arrivalSpeed="19.07" duration="794.00" routeLength="5882.36" waitingTime="124.00" waitingCount="7" stopTime="100.00" timeLoss="200.17" rerouteNo="3" devices="vehroute_104 tripinfo_104 emissions_104" vType="vecType" speedFactor="0.89" vaporized="">
        <emissions CO_abs="43273.316095" CO2_abs="1800173.091163" HC_abs="238.049004" PMx_abs="31.212931" NOx_abs="725.240590" fuel_abs="574183.381771" electricity_abs="0"/>
    </tripinfo>
    <tripinfo id="0" depart="18000.00" departLane="84823308_0" departPos="5.10" departSpeed="0.00" departDelay="0.00" arrival="18977.00" arrivalLane="84823308_0" arrivalPos="275.63" arrivalSpeed="11.16" duration="977.00" routeLength="6317.18" waitingTime="244.00" waitingCount="8" stopTime="100.00" timeLoss="343.79" rerouteNo="16" devices="vehroute_0 tripinfo_0 emissions_0" vType="vecType" speedFactor="1.06" vaporized="">
        <emissions CO_abs="63087.057343" CO2_abs="2234123.204648" HC_abs="338.487666" PMx_abs="39.490346" NOx_abs="912.310911" fuel_abs="712601.020060" electricity_abs="0"/>
    </tripinfo>
    <tripinfo id="86" depart="18120.00" departLane="-35977367#2_0" departPos="5.10" departSpeed="0.00" departDelay="0.00" arrival="18977.00" arrivalLane="-35977367#2_0" arrivalPos="431.73" arrivalSpeed="10.63" duration="857.00" routeLength="5269.07" waitingTime="194.00" waitingCount="7" stopTime="100.00" timeLoss="285.63" rerouteNo="3" devices="vehroute_86 tripinfo_86 emissions_86" vType="vecType" speedFactor="1.00" vaporized="">
        <emissions CO_abs="54163.189764" CO2_abs="1907758.484519" HC_abs="290.730830" PMx_abs="34.014819" NOx_abs="783.951325" fuel_abs="608502.623412" electricity_abs="0"/>
    </tripinfo>
    <tripinfo id="85" depart="18126.00" departLane="90077241_0" departPos="5.10" departSpeed="0.00" departDelay="6.00" arrival="18978.00" arrivalLane="90077241_0" arrivalPos="3225.35" arrivalSpeed="28.22" duration="852.00" routeLength="11984.76" waitingTime="151.00" waitingCount="7" stopTime="100.00" timeLoss="222.23" rerouteNo="2" devices="vehroute_85 tripinfo_85 emissions_85" vType="vecType" speedFactor="0.98" vaporized="">
        <emissions CO_abs="62852.977593" CO2_abs="3075971.609962" HC_abs="360.270455" PMx_abs="64.107930" NOx_abs="1200.857311" fuel_abs="981101.394734" electricity_abs="0"/>
    </tripinfo>
    <tripinfo id="12" depart="18000.00" departLane="-23883761_0" departPos="5.10" departSpeed="0.00" departDelay="0.00" arrival="18979.00" arrivalLane="-23883761_0" arrivalPos="197.88" arrivalSpeed="10.47" duration="979.00" routeLength="5849.00" waitingTime="272.00" waitingCount="10" stopTime="100.00" timeLoss="379.00" rerouteNo="2" devices="vehroute_12 tripinfo_12 emissions_12" vType="vecType" speedFactor="1.05" vaporized="">
        <emissions CO_abs="69062.499134" CO2_abs="2280107.392867" HC_abs="367.136734" PMx_abs="41.719991" NOx_abs="942.180318" fuel_abs="727269.464161" electricity_abs="0"/>
    </tripinfo>
    <tripinfo id="42" depart="18009.00" departLane="31129765_0" departPos="5.10" departSpeed="0.00" departDelay="9.00" arrival="18979.00" arrivalLane="31129765_0" arrivalPos="639.51" arrivalSpeed="24.35" duration="970.00" routeLength="7763.38" waitingTime="294.00" waitingCount="13" stopTime="100.00" timeLoss="401.99" rerouteNo="2" devices="vehroute_42 tripinfo_42 emissions_42" vType="vecType" speedFactor="1.09" vaporized="">
        <emissions CO_abs="80612.794896" CO2_abs="2885927.944275" HC_abs="434.823232" PMx_abs="58.619371" NOx_abs="1191.826975" fuel_abs="920495.513401" electricity_abs="0"/>
    </tripinfo>
    <tripinfo id="117" depart="18240.00" departLane="27167762_0" departPos="5.10" departSpeed="0.00" departDelay="0.00" arrival="18983.00" arrivalLane="27167762_0" arrivalPos="139.02" arrivalSpeed="21.44" duration="743.00" routeLength="5016.55" waitingTime="228.00" waitingCount="8" stopTime="100.00" timeLoss="310.41" rerouteNo="2" devices="vehroute_117 tripinfo_117 emissions_117" vType="vecType" speedFactor="1.01" vaporized="">
        <emissions CO_abs="60860.966858" CO2_abs="2033896.349004" HC_abs="325.083979" PMx_abs="41.229650" NOx_abs="848.907819" fuel_abs="648733.533615" electricity_abs="0"/>
    </tripinfo>
    <tripinfo id="29" depart="18000.00" departLane="-35977367#2_0" departPos="5.10" departSpeed="0.00" departDelay="0.00" arrival="18994.00" arrivalLane="-35977367#2_0" arrivalPos="431.73" arrivalSpeed="9.15" duration="994.00" routeLength="6070.29" waitingTime="212.00" waitingCount="9" stopTime="100.00" timeLoss="310.38" rerouteNo="4" devices="vehroute_29 tripinfo_29 emissions_29" vType="vecType" speedFactor="0.93" vaporized="">
        <emissions CO_abs="61391.186218" CO2_abs="2138058.530586" HC_abs="328.749527" PMx_abs="37.101164" NOx_abs="874.242980" fuel_abs="681960.985171" electricity_abs="0"/>
    </tripinfo>
    <tripinfo id="99" depart="18180.00" departLane="-27029204_0" departPos="5.10" departSpeed="0.00" departDelay="0.00" arrival="19008.00" arrivalLane="-27029204_0" arrivalPos="195.60" arrivalSpeed="12.12" duration="828.00" routeLength="5700.35" waitingTime="213.00" waitingCount="10" stopTime="100.00" timeLoss="313.56" rerouteNo="2" devices="vehroute_99 tripinfo_99 emissions_99" vType="vecType" speedFactor="1.10" vaporized="">
        <emissions CO_abs="59038.453329" CO2_abs="2125013.484259" HC_abs="317.777422" PMx_abs="40.322871" NOx_abs="875.772851" fuel_abs="677796.009994" electricity_abs="0"/>
    </tripinfo>
    <tripinfo id="119" depart="18240.00" departLane="8916767#0_0" departPos="5.10" departSpeed="0.00" departDelay="0.00" arrival="19010.00" arrivalLane="8916767#0_0" arrivalPos="129.66" arrivalSpeed="11.53" duration="770.00" routeLength="5013.92" waitingTime="159.00" waitingCount="9" stopTime="100.00" timeLoss="250.18" rerouteNo="2" devices="vehroute_119 tripinfo_119 emissions_119" vType="vecType" speedFactor="1.07" vaporized="">
        <emissions CO_abs="46397.017048" CO2_abs="1753268.198133" HC_abs="251.548030" PMx_abs="30.989645" NOx_abs="716.453742" fuel_abs="559224.395740" electricity_abs="0"/>
    </tripinfo>
    <tripinfo id="100" depart="18183.00" departLane="90077241_0" departPos="5.10" departSpeed="0.00" departDelay="3.00" arrival="19016.00" arrivalLane="90077241_0" arrivalPos="3225.35" arrivalSpeed="30.35" duration="833.00" routeLength="12218.00" waitingTime="155.00" waitingCount="6" stopTime="100.00" timeLoss="225.99" rerouteNo="2" devices="vehroute_100 tripinfo_100 emissions_100" vType="vecType" speedFactor="1.06" vaporized="">
        <emissions CO_abs="70053.286180" CO2_abs="3270520.843693" HC_abs="399.646296" PMx_abs="71.353862" NOx_abs="1274.099845" fuel_abs="1043154.599420" electricity_abs="0"/>
    </tripinfo>