<?xml version="1.0" encoding="UTF-8"?>

<!-- generated on 2022-12-09 17:51:21 by Eclipse SUMO sumo Version 1.14.1
<configuration xmlns:xsi="http://www.w3.org/2001/XMLSchema-instance" xsi:noNamespaceSchemaLocation="http://sumo.dlr.de/xsd/sumoConfiguration.xsd">

    <input>
        <net-file value="./strategia1_config/../san_francisco.net.xml"/>
        <route-files value="./strategia1_config/../san_francisco.rou.xml"/>
        <additional-files value="./strategia1_config/../san_francisco.poly.xml,./strategia1_config/../parking_capacity_100%25/off_parking_100%25.add.xml,./strategia1_config/../parking_capacity_100%25/on_parking_100%25.add.xml"/>
    </input>

    <output>
        <emission-output value="./strategia1_config/../output/strategia1/100%25/emission.xml"/>
        <summary-output value="./strategia1_config/../output/strategia1/100%25/summary.xml"/>
        <tripinfo-output value="./strategia1_config/../output/strategia1/100%25/tripinfo.xml"/>
        <vehroute-output value="./strategia1_config/../output/strategia1/100%25/vehroute.xml"/>
        <stop-output value="./strategia1_config/../output/strategia1/100%25/stops.xml"/>
        <collision-output value="./strategia1_config/../output/strategia1/100%25/collision.xml"/>
        <statistic-output value="./strategia1_config/../output/strategia1/100%25/statistic.xml"/>
    </output>

    <time>
        <step-length value="1"/>
    </time>

    <processing>
        <ignore-route-errors value="false"/>
        <time-to-teleport value="-1"/>
    </processing>

    <report>
        <verbose value="true"/>
        <xml-validation value="never"/>
    </report>

    <traci_server>
        <remote-port value="53057"/>
    </traci_server>

    <gui_only>
        <gui-settings-file value="./strategia1_config/../gui-settings.cfg"/>
        <start value="true"/>
    </gui_only>

</configuration>
-->

<tripinfos xmlns:xsi="http://www.w3.org/2001/XMLSchema-instance" xsi:noNamespaceSchemaLocation="http://sumo.dlr.de/xsd/tripinfo_file.xsd">
    <tripinfo id="30" depart="18000.00" departLane="-91181760#0_0" departPos="5.10" departSpeed="0.00" departDelay="0.00" arrival="18341.00" arrivalLane="-91181760#0_0" arrivalPos="79.70" arrivalSpeed="12.36" duration="341.00" routeLength="3660.42" waitingTime="1.00" waitingCount="1" stopTime="20.00" timeLoss="42.59" rerouteNo="1" devices="vehroute_30 tripinfo_30 emissions_30" vType="vecType" speedFactor="1.18" vaporized="">
        <emissions CO_abs="11922.758984" CO2_abs="937405.538665" HC_abs="75.487140" PMx_abs="15.019658" NOx_abs="370.387778" fuel_abs="298989.600285" electricity_abs="0"/>
    </tripinfo>
    <tripinfo id="1" depart="18000.00" departLane="31129765_0" departPos="5.10" departSpeed="0.00" departDelay="0.00" arrival="18353.00" arrivalLane="31129765_0" arrivalPos="639.51" arrivalSpeed="19.99" duration="353.00" routeLength="4341.32" waitingTime="21.00" waitingCount="2" stopTime="20.00" timeLoss="64.87" rerouteNo="1" devices="vehroute_1 tripinfo_1 emissions_1" vType="vecType" speedFactor="0.94" vaporized="">
        <emissions CO_abs="18425.575060" CO2_abs="1155820.403348" HC_abs="110.211718" PMx_abs="20.942060" NOx_abs="455.521213" fuel_abs="368654.639467" electricity_abs="0"/>
    </tripinfo>
    <tripinfo id="45" depart="18060.00" departLane="31129765_0" departPos="5.10" departSpeed="0.00" departDelay="0.00" arrival="18382.00" arrivalLane="31129765_0" arrivalPos="639.51" arrivalSpeed="23.54" duration="322.00" routeLength="4234.28" waitingTime="40.00" waitingCount="1" stopTime="20.00" timeLoss="78.88" rerouteNo="1" devices="vehroute_45 tripinfo_45 emissions_45" vType="vecType" speedFactor="1.09" vaporized="">
        <emissions CO_abs="22721.590199" CO2_abs="1269976.306636" HC_abs="133.450807" PMx_abs="25.475802" NOx_abs="512.296076" fuel_abs="405064.573435" electricity_abs="0"/>
    </tripinfo>
    <tripinfo id="60" depart="18060.00" departLane="8916792_0" departPos="5.10" departSpeed="0.00" departDelay="0.00" arrival="18488.00" arrivalLane="8916792_0" arrivalPos="615.11" arrivalSpeed="11.68" duration="428.00" routeLength="3743.73" waitingTime="55.00" waitingCount="3" stopTime="20.00" timeLoss="98.44" rerouteNo="1" devices="vehroute_60 tripinfo_60 emissions_60" vType="vecType" speedFactor="1.08" vaporized="">
        <emissions CO_abs="19741.714127" CO2_abs="977867.165075" HC_abs="112.046062" PMx_abs="15.307838" NOx_abs="384.731301" fuel_abs="311900.106185" electricity_abs="0"/>
    </tripinfo>
    <tripinfo id="28" depart="18009.00" departLane="90077241_0" departPos="5.10" departSpeed="0.00" departDelay="9.00" arrival="18576.00" arrivalLane="90077241_0" arrivalPos="3225.35" arrivalSpeed="32.60" duration="567.00" routeLength="11899.33" waitingTime="67.00" waitingCount="3" stopTime="20.00" timeLoss="119.77" rerouteNo="3" devices="vehroute_28 tripinfo_28 emissions_28" vType="vecType" speedFactor="1.13" vaporized="">
        <emissions CO_abs="60123.072859" CO2_abs="3091210.189531" HC_abs="351.361208" PMx_abs="71.155126" NOx_abs="1207.466495" fuel_abs="985955.815380" electricity_abs="0"/>
    </tripinfo>
    <tripinfo id="76" depart="18120.00" departLane="225806031#0_0" departPos="5.10" departSpeed="0.00" departDelay="0.00" arrival="18576.00" arrivalLane="225806031#0_0" arrivalPos="142.16" arrivalSpeed="11.08" duration="456.00" routeLength="3181.76" waitingTime="112.00" waitingCount="4" stopTime="20.00" timeLoss="161.45" rerouteNo="1" devices="vehroute_76 tripinfo_76 emissions_76" vType="vecType" speedFactor="1.03" vaporized="">
        <emissions CO_abs="31003.685349" CO2_abs="1138951.239274" HC_abs="167.415027" PMx_abs="20.059060" NOx_abs="465.274287" fuel_abs="363281.768543" electricity_abs="0"/>
    </tripinfo>
    <tripinfo id="49" depart="18063.00" departLane="31129765_0" departPos="5.10" departSpeed="0.00" departDelay="3.00" arrival="18663.00" arrivalLane="31129765_0" arrivalPos="639.51" arrivalSpeed="18.25" duration="600.00" routeLength="12944.78" waitingTime="1.00" waitingCount="1" stopTime="20.00" timeLoss="34.12" rerouteNo="1" devices="vehroute_49 tripinfo_49 emissions_49" vType="vecType" speedFactor="0.85" vaporized="">
        <emissions CO_abs="23623.688386" CO2_abs="2474788.274420" HC_abs="163.548715" PMx_abs="45.446835" NOx_abs="903.518301" fuel_abs="789340.364610" electricity_abs="0"/>
    </tripinfo>
    <tripinfo id="93" depart="18120.00" departLane="-254758121#2_0" departPos="5.10" departSpeed="0.00" departDelay="0.00" arrival="18663.00" arrivalLane="-254758121#2_0" arrivalPos="99.35" arrivalSpeed="9.23" duration="543.00" routeLength="3841.81" waitingTime="93.00" waitingCount="4" stopTime="20.00" timeLoss="149.78" rerouteNo="3" devices="vehroute_93 tripinfo_93 emissions_93" vType="vecType" speedFactor="0.92" vaporized="">
        <emissions CO_abs="31815.756661" CO2_abs="1243781.712347" HC_abs="173.501977" PMx_abs="21.011820" NOx_abs="505.278526" fuel_abs="396718.148931" electricity_abs="0"/>
    </tripinfo>
    <tripinfo id="16" depart="18006.00" departLane="90077241_0" departPos="5.10" departSpeed="0.00" departDelay="6.00" arrival="18687.00" arrivalLane="90077241_0" arrivalPos="3225.35" arrivalSpeed="25.04" duration="681.00" routeLength="11625.26" waitingTime="81.00" waitingCount="3" stopTime="20.00" timeLoss="136.45" rerouteNo="1" devices="vehroute_16 tripinfo_16 emissions_16" vType="vecType" speedFactor="0.88" vaporized="">
        <emissions CO_abs="41521.397303" CO2_abs="2631054.680268" HC_abs="249.104281" PMx_abs="50.626070" NOx_abs="996.364938" fuel_abs="839188.528916" electricity_abs="0"/>
    </tripinfo>
    <tripinfo id="21" depart="18000.00" departLane="27167762_0" departPos="5.10" departSpeed="0.00" departDelay="0.00" arrival="18709.00" arrivalLane="27167762_0" arrivalPos="139.02" arrivalSpeed="22.02" duration="709.00" routeLength="12026.47" waitingTime="114.00" waitingCount="6" stopTime="0.00" timeLoss="175.08" rerouteNo="4" devices="vehroute_21 tripinfo_21 emissions_21" vType="vecType" speedFactor="1.01" vaporized="">
        <emissions CO_abs="56912.152039" CO2_abs="3000262.133426" HC_abs="332.109529" PMx_abs="62.382433" NOx_abs="1163.486292" fuel_abs="956951.424365" electricity_abs="0"/>
    </tripinfo>
    <tripinfo id="74" depart="18120.00" departLane="144489137#0_0" departPos="5.10" departSpeed="0.00" departDelay="0.00" arrival="18719.00" arrivalLane="144489137#0_0" arrivalPos="135.49" arrivalSpeed="9.78" duration="599.00" routeLength="3199.44" waitingTime="214.00" waitingCount="9" stopTime="20.00" timeLoss="284.72" rerouteNo="7" devices="vehroute_74 tripinfo_74 emissions_74" vType="vecType" speedFactor="0.96" vaporized="">
        <emissions CO_abs="51500.107969" CO2_abs="1469540.554942" HC_abs="268.536208" PMx_abs="28.339274" NOx_abs="618.849879" fuel_abs="468731.383907" electricity_abs="0"/>
    </tripinfo>
    <tripinfo id="31" depart="18006.00" departLane="123867455_0" departPos="5.10" departSpeed="0.00" departDelay="6.00" arrival="18721.00" arrivalLane="123867455_0" arrivalPos="904.85" arrivalSpeed="32.95" duration="715.00" routeLength="7632.90" waitingTime="133.00" waitingCount="7" stopTime="20.00" timeLoss="230.66" rerouteNo="1" devices="vehroute_31 tripinfo_31 emissions_31" vType="vecType" speedFactor="1.15" vaporized="">
        <emissions CO_abs="49991.391167" CO2_abs="2328141.500595" HC_abs="281.803201" PMx_abs="44.563462" NOx_abs="941.086425" fuel_abs="742577.664650" electricity_abs="0"/>
    </tripinfo>
    <tripinfo id="15" depart="18000.00" departLane="-24310636#2_0" departPos="5.10" departSpeed="0.00" departDelay="0.00" arrival="18753.00" arrivalLane="-24310636#2_1" arrivalPos="108.36" arrivalSpeed="9.84" duration="753.00" routeLength="6010.81" waitingTime="128.00" waitingCount="7" stopTime="20.00" timeLoss="212.68" rerouteNo="1" devices="vehroute_15 tripinfo_15 emissions_15" vType="vecType" speedFactor="0.93" vaporized="">
        <emissions CO_abs="45600.603410" CO2_abs="1857810.403247" HC_abs="250.464673" PMx_abs="32.144070" NOx_abs="751.411492" fuel_abs="592567.962053" electricity_abs="0"/>
    </tripinfo>
    <tripinfo id="20" depart="18000.00" departLane="123867455_0" departPos="5.10" departSpeed="0.00" departDelay="0.00" arrival="18758.00" arrivalLane="123867455_0" arrivalPos="904.85" arrivalSpeed="28.68" duration="758.00" routeLength="6719.97" waitingTime="214.00" waitingCount="7" stopTime="20.00" timeLoss="292.04" rerouteNo="3" devices="vehroute_20 tripinfo_20 emissions_20" vType="vecType" speedFactor="1.02" vaporized="">
        <emissions CO_abs="60092.291393" CO2_abs="2286593.015888" HC_abs="327.209450" PMx_abs="44.149356" NOx_abs="931.360467" fuel_abs="729331.749516" electricity_abs="0"/>
    </tripinfo>
    <tripinfo id="39" depart="18006.00" departLane="31129765_0" departPos="5.10" departSpeed="0.00" departDelay="6.00" arrival="18762.00" arrivalLane="31129765_0" arrivalPos="639.51" arrivalSpeed="19.55" duration="756.00" routeLength="6254.53" waitingTime="243.00" waitingCount="7" stopTime="20.00" timeLoss="320.26" rerouteNo="3" devices="vehroute_39 tripinfo_39 emissions_39" vType="vecType" speedFactor="0.90" vaporized="">
        <emissions CO_abs="63362.533346" CO2_abs="2200680.284550" HC_abs="339.090538" PMx_abs="43.039071" NOx_abs="903.134679" fuel_abs="701931.375329" electricity_abs="0"/>
    </tripinfo>
    <tripinfo id="47" depart="18060.00" departLane="90077241_0" departPos="5.10" departSpeed="0.00" departDelay="0.00" arrival="18777.00" arrivalLane="90077241_0" arrivalPos="3225.35" arrivalSpeed="26.00" duration="717.00" routeLength="12000.21" waitingTime="65.00" waitingCount="3" stopTime="20.00" timeLoss="119.81" rerouteNo="5" devices="vehroute_47 tripinfo_47 emissions_47" vType="vecType" speedFactor="0.90" vaporized="">
        <emissions CO_abs="40926.418071" CO2_abs="2673572.290962" HC_abs="248.590359" PMx_abs="51.349571" NOx_abs="1015.897732" fuel_abs="852749.256803" electricity_abs="0"/>
    </tripinfo>
    <tripinfo id="33" depart="18000.00" departLane="144489137#0_0" departPos="5.10" departSpeed="0.00" departDelay="0.00" arrival="18781.00" arrivalLane="144489137#0_0" arrivalPos="135.49" arrivalSpeed="12.34" duration="781.00" routeLength="3872.00" waitingTime="367.00" waitingCount="14" stopTime="20.00" timeLoss="467.43" rerouteNo="1" devices="vehroute_33 tripinfo_33 emissions_33" vType="vecType" speedFactor="1.17" vaporized="">
        <emissions CO_abs="79294.364430" CO2_abs="2109501.147222" HC_abs="409.142933" PMx_abs="43.125368" NOx_abs="898.947846" fuel_abs="672857.014688" electricity_abs="0"/>
    </tripinfo>
    <tripinfo id="82" depart="18123.00" departLane="-133781749_0" departPos="5.10" departSpeed="0.00" departDelay="3.00" arrival="18783.00" arrivalLane="-133781749_0" arrivalPos="138.68" arrivalSpeed="10.30" duration="660.00" routeLength="5499.56" waitingTime="104.00" waitingCount="9" stopTime="20.00" timeLoss="210.53" rerouteNo="1" devices="vehroute_82 tripinfo_82 emissions_82" vType="vecType" speedFactor="1.02" vaporized="">
        <emissions CO_abs="41464.346135" CO2_abs="1774639.325696" HC_abs="230.006816" PMx_abs="31.429594" NOx_abs="718.966074" fuel_abs="566037.831046" electricity_abs="0"/>
    </tripinfo>
    <tripinfo id="68" depart="18060.00" departLane="27167762_0" departPos="5.10" departSpeed="0.00" departDelay="0.00" arrival="18787.00" arrivalLane="27167762_0" arrivalPos="139.02" arrivalSpeed="22.79" duration="727.00" routeLength="12191.33" waitingTime="125.00" waitingCount="5" stopTime="0.00" timeLoss="193.12" rerouteNo="5" devices="vehroute_68 tripinfo_68 emissions_68" vType="vecType" speedFactor="1.04" vaporized="">
        <emissions CO_abs="61527.752743" CO2_abs="3134184.684359" HC_abs="356.717070" PMx_abs="66.253403" NOx_abs="1216.688529" fuel_abs="999667.385934" electricity_abs="0"/>
    </tripinfo>
    <tripinfo id="36" depart="18009.00" departLane="123867455_0" departPos="5.10" departSpeed="0.00" departDelay="9.00" arrival="18793.00" arrivalLane="123867455_0" arrivalPos="904.85" arrivalSpeed="27.19" duration="784.00" routeLength="5939.63" waitingTime="285.00" waitingCount="8" stopTime="20.00" timeLoss="375.99" rerouteNo="4" devices="vehroute_36 tripinfo_36 emissions_36" vType="vecType" speedFactor="0.97" vaporized="">
        <emissions CO_abs="72940.950268" CO2_abs="2348979.449111" HC_abs="387.626171" PMx_abs="47.997119" NOx_abs="978.044879" fuel_abs="749234.378118" electricity_abs="0"/>
    </tripinfo>
    <tripinfo id="0" depart="18000.00" departLane="84823308_0" departPos="5.10" departSpeed="0.00" departDelay="0.00" arrival="18794.00" arrivalLane="84823308_0" arrivalPos="275.63" arrivalSpeed="11.26" duration="794.00" routeLength="5711.39" waitingTime="213.00" waitingCount="6" stopTime="20.00" timeLoss="292.01" rerouteNo="4" devices="vehroute_0 tripinfo_0 emissions_0" vType="vecType" speedFactor="1.06" vaporized="">
        <emissions CO_abs="53623.940544" CO2_abs="1927416.096421" HC_abs="288.204350" PMx_abs="33.161826" NOx_abs="780.213496" fuel_abs="614773.624383" electricity_abs="0"/>
    </tripinfo>
    <tripinfo id="27" depart="18000.00" departLane="-8916048_0" departPos="5.10" departSpeed="0.00" departDelay="0.00" arrival="18798.00" arrivalLane="-8916048_0" arrivalPos="126.72" arrivalSpeed="9.95" duration="798.00" routeLength="6742.86" waitingTime="107.00" waitingCount="5" stopTime="20.00" timeLoss="200.15" rerouteNo="1" devices="vehroute_27 tripinfo_27 emissions_27" vType="vecType" speedFactor="0.95" vaporized="">
        <emissions CO_abs="43215.161100" CO2_abs="1956285.972819" HC_abs="242.016489" PMx_abs="32.913498" NOx_abs="784.516711" fuel_abs="623975.893754" electricity_abs="0"/>
    </tripinfo>
    <tripinfo id="13" depart="18003.00" departLane="90077241_0" departPos="5.10" departSpeed="0.00" departDelay="3.00" arrival="18835.00" arrivalLane="90077241_0" arrivalPos="3225.35" arrivalSpeed="32.49" duration="832.00" routeLength="12752.38" waitingTime="213.00" waitingCount="7" stopTime="20.00" timeLoss="292.34" rerouteNo="1" devices="vehroute_13 tripinfo_13 emissions_13" vType="vecType" speedFactor="1.12" vaporized="">
        <emissions CO_abs="88225.327502" CO2_abs="3695231.907233" HC_abs="492.778294" PMx_abs="83.343495" NOx_abs="1471.369576" fuel_abs="1178620.646898" electricity_abs="0"/>
    </tripinfo>
    <tripinfo id="63" depart="18063.00" departLane="-204967525_0" departPos="5.10" departSpeed="0.00" departDelay="3.00" arrival="18839.00" arrivalLane="-204967525_1" arrivalPos="146.26" arrivalSpeed="10.52" duration="776.00" routeLength="4830.14" waitingTime="215.00" waitingCount="9" stopTime="20.00" timeLoss="317.88" rerouteNo="1" devices="vehroute_63 tripinfo_63 emissions_63" vType="vecType" speedFactor="0.99" vaporized="">
        <emissions CO_abs="57678.222424" CO2_abs="1848387.027739" HC_abs="305.264904" PMx_abs="33.196878" NOx_abs="761.702358" fuel_abs="589568.342957" electricity_abs="0"/>
    </tripinfo>
    <tripinfo id="53" depart="18060.00" departLane="-27029200#2_0" departPos="5.10" departSpeed="0.00" departDelay="0.00" arrival="18843.00" arrivalLane="-27029200#2_0" arrivalPos="66.62" arrivalSpeed="11.70" duration="783.00" routeLength="6523.22" waitingTime="183.00" waitingCount="9" stopTime="20.00" timeLoss="280.12" rerouteNo="2" devices="vehroute_53 tripinfo_53 emissions_53" vType="vecType" speedFactor="1.10" vaporized="">
        <emissions CO_abs="55370.123940" CO2_abs="2198236.699105" HC_abs="302.955655" PMx_abs="40.685909" NOx_abs="901.819812" fuel_abs="701148.726506" electricity_abs="0"/>
    </tripinfo>
    <tripinfo id="2" depart="18000.00" departLane="142972028#1_0" departPos="5.10" departSpeed="0.00" departDelay="0.00" arrival="18849.00" arrivalLane="142972028#1_0" arrivalPos="161.20" arrivalSpeed="10.43" duration="849.00" routeLength="6732.31" waitingTime="160.00" waitingCount="11" stopTime="20.00" timeLoss="290.77" rerouteNo="2" devices="vehroute_2 tripinfo_2 emissions_2" vType="vecType" speedFactor="1.01" vaporized="">
        <emissions CO_abs="55313.084864" CO2_abs="2229102.098083" HC_abs="303.180850" PMx_abs="39.635997" NOx_abs="906.616717" fuel_abs="710994.609146" electricity_abs="0"/>
    </tripinfo>
    <tripinfo id="84" depart="18123.00" departLane="90077241_0" departPos="5.10" departSpeed="0.00" departDelay="3.00" arrival="18854.00" arrivalLane="90077241_0" arrivalPos="3225.35" arrivalSpeed="33.32" duration="731.00" routeLength="12280.95" waitingTime="166.00" waitingCount="6" stopTime="20.00" timeLoss="235.93" rerouteNo="1" devices="vehroute_84 tripinfo_84 emissions_84" vType="vecType" speedFactor="1.15" vaporized="">
        <emissions CO_abs="80167.781513" CO2_abs="3448237.994435" HC_abs="450.370164" PMx_abs="78.958821" NOx_abs="1357.560529" fuel_abs="1099839.160015" electricity_abs="0"/>
    </tripinfo>
    <tripinfo id="24" depart="18003.00" departLane="123867455_0" departPos="5.10" departSpeed="0.00" departDelay="3.00" arrival="18860.00" arrivalLane="123867455_0" arrivalPos="904.85" arrivalSpeed="23.15" duration="857.00" routeLength="6219.34" waitingTime="217.00" waitingCount="10" stopTime="20.00" timeLoss="319.38" rerouteNo="2" devices="vehroute_24 tripinfo_24 emissions_24" vType="vecType" speedFactor="0.83" vaporized="">
        <emissions CO_abs="66760.977593" CO2_abs="2244421.736632" HC_abs="355.525546" PMx_abs="42.551588" NOx_abs="918.238954" fuel_abs="715885.684523" electricity_abs="0"/>
    </tripinfo>
    <tripinfo id="40" depart="18000.00" departLane="-206679802#4_0" departPos="5.10" departSpeed="0.00" departDelay="0.00" arrival="18863.00" arrivalLane="-206679802#4_0" arrivalPos="292.11" arrivalSpeed="10.81" duration="863.00" routeLength="6393.61" waitingTime="194.00" waitingCount="6" stopTime="20.00" timeLoss="287.18" rerouteNo="9" devices="vehroute_40 tripinfo_40 emissions_40" vType="vecType" speedFactor="1.03" vaporized="">
        <emissions CO_abs="55392.831463" CO2_abs="2128354.918549" HC_abs="301.288302" PMx_abs="36.764905" NOx_abs="864.781179" fuel_abs="678862.836559" electricity_abs="0"/>
    </tripinfo>
    <tripinfo id="64" depart="18060.00" departLane="28319343#2_0" departPos="5.10" departSpeed="0.00" departDelay="0.00" arrival="18872.00" arrivalLane="28319343#2_0" arrivalPos="90.58" arrivalSpeed="10.26" duration="812.00" routeLength="9974.14" waitingTime="217.00" waitingCount="8" stopTime="0.00" timeLoss="285.33" rerouteNo="1" devices="vehroute_64 tripinfo_64 emissions_64" vType="vecType" speedFactor="0.94" vaporized="">
        <emissions CO_abs="65139.433954" CO2_abs="2746000.624502" HC_abs="360.781117" PMx_abs="54.561014" NOx_abs="1081.832240" fuel_abs="875861.433936" electricity_abs="0"/>
    </tripinfo>
    <tripinfo id="73" depart="18120.00" departLane="-204967525_0" departPos="5.10" departSpeed="0.00" departDelay="0.00" arrival="18879.00" arrivalLane="-204967525_1" arrivalPos="146.26" arrivalSpeed="10.58" duration="759.00" routeLength="5090.57" waitingTime="213.00" waitingCount="8" stopTime="20.00" timeLoss="306.99" rerouteNo="1" devices="vehroute_73 tripinfo_73 emissions_73" vType="vecType" speedFactor="1.06" vaporized="">
        <emissions CO_abs="57695.900674" CO2_abs="1993805.907508" HC_abs="308.859527" PMx_abs="36.957841" NOx_abs="827.532133" fuel_abs="635947.631765" electricity_abs="0"/>
    </tripinfo>
    <tripinfo id="42" depart="18009.00" departLane="31129765_0" departPos="5.10" departSpeed="0.00" departDelay="9.00" arrival="18892.00" arrivalLane="31129765_0" arrivalPos="639.51" arrivalSpeed="24.17" duration="883.00" routeLength="7763.38" waitingTime="279.00" waitingCount="12" stopTime="20.00" timeLoss="394.16" rerouteNo="1" devices="vehroute_42 tripinfo_42 emissions_42" vType="vecType" speedFactor="1.09" vaporized="">
        <emissions CO_abs="78053.817268" CO2_abs="2846759.718771" HC_abs="422.255297" PMx_abs="57.520951" NOx_abs="1174.027487" fuel_abs="908001.763240" electricity_abs="0"/>
    </tripinfo>
    <tripinfo id="85" depart="18126.00" departLane="90077241_0" departPos="5.10" departSpeed="0.00" departDelay="6.00" arrival="18892.00" arrivalLane="90077241_0" arrivalPos="3225.35" arrivalSpeed="28.21" duration="766.00" routeLength="11984.76" waitingTime="150.00" waitingCount="8" stopTime="20.00" timeLoss="216.60" rerouteNo="1" devices="vehroute_85 tripinfo_85 emissions_85" vType="vecType" speedFactor="0.98" vaporized="">
        <emissions CO_abs="62287.278278" CO2_abs="3061652.712986" HC_abs="357.685321" PMx_abs="64.082282" NOx_abs="1196.097024" fuel_abs="976533.930416" electricity_abs="0"/>
    </tripinfo>
    <tripinfo id="29" depart="18000.00" departLane="-35977367#2_0" departPos="5.10" departSpeed="0.00" departDelay="0.00" arrival="18896.00" arrivalLane="-35977367#2_0" arrivalPos="431.73" arrivalSpeed="10.18" duration="896.00" routeLength="6070.29" waitingTime="193.00" waitingCount="8" stopTime="20.00" timeLoss="292.65" rerouteNo="3" devices="vehroute_29 tripinfo_29 emissions_29" vType="vecType" speedFactor="0.93" vaporized="">
        <emissions CO_abs="59115.670402" CO2_abs="2122591.458174" HC_abs="318.056763" PMx_abs="36.673604" NOx_abs="867.115979" fuel_abs="677026.559516" electricity_abs="0"/>
    </tripinfo>
    <tripinfo id="25" depart="18003.00" departLane="-23883761_0" departPos="5.10" departSpeed="0.00" departDelay="3.00" arrival="18906.00" arrivalLane="-23883761_0" arrivalPos="197.88" arrivalSpeed="9.06" duration="903.00" routeLength="5896.49" waitingTime="176.00" waitingCount="11" stopTime="20.00" timeLoss="277.80" rerouteNo="2" devices="vehroute_25 tripinfo_25 emissions_25" vType="vecType" speedFactor="0.87" vaporized="">
        <emissions CO_abs="56817.886056" CO2_abs="1968993.217745" HC_abs="303.777438" PMx_abs="32.996781" NOx_abs="799.342046" fuel_abs="628036.808009" electricity_abs="0"/>
    </tripinfo>
    <tripinfo id="10" depart="18000.00" departLane="90077241_0" departPos="5.10" departSpeed="0.00" departDelay="0.00" arrival="18907.00" arrivalLane="90077241_0" arrivalPos="3225.35" arrivalSpeed="30.57" duration="907.00" routeLength="12917.03" waitingTime="244.00" waitingCount="9" stopTime="20.00" timeLoss="337.01" rerouteNo="5" devices="vehroute_10 tripinfo_10 emissions_10" vType="vecType" speedFactor="1.09" vaporized="">
        <emissions CO_abs="91985.017472" CO2_abs="3795374.111301" HC_abs="511.992421" PMx_abs="83.985505" NOx_abs="1512.641249" fuel_abs="1210563.524810" electricity_abs="0"/>
    </tripinfo>
    <tripinfo id="99" depart="18180.00" departLane="-27029204_0" departPos="5.10" departSpeed="0.00" departDelay="0.00" arrival="18918.00" arrivalLane="-27029204_0" arrivalPos="195.60" arrivalSpeed="11.42" duration="738.00" routeLength="5700.35" waitingTime="211.00" waitingCount="9" stopTime="20.00" timeLoss="303.86" rerouteNo="2" devices="vehroute_99 tripinfo_99 emissions_99" vType="vecType" speedFactor="1.10" vaporized="">
        <emissions CO_abs="57341.277894" CO2_abs="2087048.759358" HC_abs="309.362183" PMx_abs="39.389151" NOx_abs="859.253968" fuel_abs="665686.597892" electricity_abs="0"/>
    </tripinfo>
    <tripinfo id="43" depart="18012.00" departLane="123867455_0" departPos="5.10" departSpeed="0.00" departDelay="12.00" arrival="18957.00" arrivalLane="123867455_0" arrivalPos="904.85" arrivalSpeed="29.14" duration="945.00" routeLength="8280.56" waitingTime="223.00" waitingCount="11" stopTime="20.00" timeLoss="352.36" rerouteNo="2" devices="vehroute_43 tripinfo_43 emissions_43" vType="vecType" speedFactor="1.04" vaporized="">
        <emissions CO_abs="71167.417849" CO2_abs="2827488.935257" HC_abs="390.279663" PMx_abs="53.798229" NOx_abs="1155.390544" fuel_abs="901854.192060" electricity_abs="0"/>
    </tripinfo>
    <tripinfo id="90" depart="18120.00" departLane="-254758120#3_0" departPos="5.10" departSpeed="0.00" departDelay="0.00" arrival="18957.00" arrivalLane="-254758120#3_0" arrivalPos="147.41" arrivalSpeed="10.11" duration="837.00" routeLength="5221.94" waitingTime="270.00" waitingCount="10" stopTime="20.00" timeLoss="356.96" rerouteNo="1" devices="vehroute_90 tripinfo_90 emissions_90" vType="vecType" speedFactor="1.02" vaporized="">
        <emissions CO_abs="64906.192948" CO2_abs="2018205.674086" HC_abs="342.170048" PMx_abs="36.935282" NOx_abs="834.456716" fuel_abs="643734.896205" electricity_abs="0"/>
    </tripinfo>
    <tripinfo id="3" depart="18000.00" departLane="-133781749_0" departPos="5.10" departSpeed="0.00" departDelay="0.00" arrival="18959.00" arrivalLane="-133781749_0" arrivalPos="138.68" arrivalSpeed="11.80" duration="959.00" routeLength="7501.04" waitingTime="240.00" waitingCount="13" stopTime="20.00" timeLoss="369.83" rerouteNo="1" devices="vehroute_3 tripinfo_3 emissions_3" vType="vecType" speedFactor="1.08" vaporized="">
        <emissions CO_abs="69878.823680" CO2_abs="2640581.424544" HC_abs="379.310087" PMx_abs="48.963469" NOx_abs="1084.604510" fuel_abs="842240.801553" electricity_abs="0"/>
    </tripinfo>
    <tripinfo id="75" depart="18120.00" departLane="-254297762#2_0" departPos="5.10" departSpeed="0.00" departDelay="0.00" arrival="18961.00" arrivalLane="-254297762#2_0" arrivalPos="291.17" arrivalSpeed="10.72" duration="841.00" routeLength="5758.38" waitingTime="190.00" waitingCount="11" stopTime="20.00" timeLoss="297.57" rerouteNo="2" devices="vehroute_75 tripinfo_75 emissions_75" vType="vecType" speedFactor="0.98" vaporized="">
        <emissions CO_abs="57506.989539" CO2_abs="2060999.404762" HC_abs="309.495491" PMx_abs="36.506660" NOx_abs="846.063911" fuel_abs="657380.229340" electricity_abs="0"/>
    </tripinfo>
    <tripinfo id="9" depart="18000.00" departLane="23959829#0_0" departPos="5.10" departSpeed="0.00" departDelay="0.00" arrival="18967.00" arrivalLane="23959829#0_0" arrivalPos="45.86" arrivalSpeed="8.70" duration="967.00" routeLength="6745.88" waitingTime="199.00" waitingCount="9" stopTime="20.00" timeLoss="307.52" rerouteNo="2" devices="vehroute_9 tripinfo_9 emissions_9" vType="vecType" speedFactor="0.86" vaporized="">
        <emissions CO_abs="63397.763596" CO2_abs="2285098.813560" HC_abs="340.706410" PMx_abs="39.265159" NOx_abs="926.206514" fuel_abs="728860.565392" electricity_abs="0"/>
    </tripinfo>
    <tripinfo id="56" depart="18066.00" departLane="31129765_0" departPos="5.10" departSpeed="0.00" departDelay="6.00" arrival="18970.00" arrivalLane="31129765_0" arrivalPos="639.51" arrivalSpeed="19.21" duration="904.00" routeLength="13447.31" waitingTime="169.00" waitingCount="5" stopTime="0.00" timeLoss="238.31" rerouteNo="4" devices="vehroute_56 tripinfo_56 emissions_56" vType="vecType" speedFactor="0.90" vaporized="">
        <emissions CO_abs="61086.346382" CO2_abs="3239888.258962" HC_abs="352.895147" PMx_abs="62.155063" NOx_abs="1243.694202" fuel_abs="1033384.827659" electricity_abs="0"/>
    </tripinfo>
    <tripinfo id="41" depart="18003.00" departLane="144489137#0_0" departPos="5.10" departSpeed="0.00" departDelay="3.00" arrival="18974.00" arrivalLane="144489137#0_0" arrivalPos="135.49" arrivalSpeed="9.67" duration="971.00" routeLength="5119.82" waitingTime="368.00" waitingCount="15" stopTime="20.00" timeLoss="475.53" rerouteNo="1" devices="vehroute_41 tripinfo_41 emissions_41" vType="vecType" speedFactor="0.96" vaporized="">
        <emissions CO_abs="84303.029209" CO2_abs="2335283.340303" HC_abs="437.773457" PMx_abs="44.611521" NOx_abs="980.205421" fuel_abs="744874.738817" electricity_abs="0"/>
    </tripinfo>
    <tripinfo id="86" depart="18120.00" departLane="-35977367#2_0" departPos="5.10" departSpeed="0.00" departDelay="0.00" arrival="18975.00" arrivalLane="-35977367#2_0" arrivalPos="431.73" arrivalSpeed="10.32" duration="855.00" routeLength="5770.12" waitingTime="228.00" waitingCount="6" stopTime="20.00" timeLoss="319.68" rerouteNo="2" devices="vehroute_86 tripinfo_86 emissions_86" vType="vecType" speedFactor="1.00" vaporized="">
        <emissions CO_abs="60969.415520" CO2_abs="2107128.821399" HC_abs="326.349748" PMx_abs="37.747153" NOx_abs="866.993427" fuel_abs="672094.716879" electricity_abs="0"/>
    </tripinfo>