<?xml version="1.0" encoding="UTF-8"?>

<!-- generated on 2022-12-19 21:09:55 by Eclipse SUMO sumo Version 1.14.1
<configuration xmlns:xsi="http://www.w3.org/2001/XMLSchema-instance" xsi:noNamespaceSchemaLocation="http://sumo.dlr.de/xsd/sumoConfiguration.xsd">

    <input>
        <net-file value="./strategia1_config/../san_francisco.net.xml"/>
        <route-files value="./strategia1_config/../san_francisco.rou.xml"/>
        <additional-files value="./strategia1_config/../san_francisco.poly.xml,./strategia1_config/../parking_capacity_100%25/off_parking_100%25.add.xml,./strategia1_config/../parking_capacity_100%25/on_parking_100%25.add.xml"/>
    </input>

    <output>
        <emission-output value="./strategia1_config/../output/strategia1/100%25/emissions.xml"/>
        <tripinfo-output value="./strategia1_config/../output/strategia1/100%25/tripinfo.xml"/>
        <vehroute-output value="./strategia1_config/../output/strategia1/100%25/vehroute.xml"/>
        <stop-output value="./strategia1_config/../output/strategia1/100%25/stops.xml"/>
        <collision-output value="./strategia1_config/../output/strategia1/100%25/collision.xml"/>
        <statistic-output value="./strategia1_config/../output/strategia1/100%25/statistic.xml"/>
    </output>

    <time>
        <step-length value="1"/>
    </time>

    <processing>
        <ignore-route-errors value="false"/>
        <time-to-teleport value="-1"/>
    </processing>

    <report>
        <verbose value="true"/>
        <xml-validation value="never"/>
    </report>

    <traci_server>
        <remote-port value="59018"/>
    </traci_server>

    <gui_only>
        <gui-settings-file value="./strategia1_config/../gui-settings.cfg"/>
        <start value="true"/>
    </gui_only>

</configuration>
-->

<tripinfos xmlns:xsi="http://www.w3.org/2001/XMLSchema-instance" xsi:noNamespaceSchemaLocation="http://sumo.dlr.de/xsd/tripinfo_file.xsd">
    <tripinfo id="30" depart="18000.00" departLane="-91181760#0_0" departPos="5.10" departSpeed="0.00" departDelay="0.00" arrival="18342.00" arrivalLane="-91181760#0_0" arrivalPos="79.70" arrivalSpeed="12.29" duration="342.00" routeLength="3660.42" waitingTime="1.00" waitingCount="1" stopTime="20.00" timeLoss="43.63" rerouteNo="1" devices="vehroute_30 tripinfo_30 emissions_30" vType="vecType" speedFactor="1.18" vaporized="">
        <emissions CO_abs="12172.338071" CO2_abs="956154.712013" HC_abs="76.923011" PMx_abs="15.264123" NOx_abs="376.921699" fuel_abs="304969.832912" electricity_abs="0"/>
    </tripinfo>
    <tripinfo id="1" depart="18000.00" departLane="31129765_0" departPos="5.10" departSpeed="0.00" departDelay="0.00" arrival="18352.00" arrivalLane="31129765_0" arrivalPos="639.51" arrivalSpeed="20.48" duration="352.00" routeLength="4341.32" waitingTime="22.00" waitingCount="2" stopTime="20.00" timeLoss="64.05" rerouteNo="1" devices="vehroute_1 tripinfo_1 emissions_1" vType="vecType" speedFactor="0.94" vaporized="">
        <emissions CO_abs="18646.949728" CO2_abs="1159351.876676" HC_abs="111.026142" PMx_abs="20.984605" NOx_abs="456.170488" fuel_abs="369781.076908" electricity_abs="0"/>
    </tripinfo>
    <tripinfo id="45" depart="18060.00" departLane="31129765_0" departPos="5.10" departSpeed="0.00" departDelay="0.00" arrival="18384.00" arrivalLane="31129765_0" arrivalPos="639.51" arrivalSpeed="23.30" duration="324.00" routeLength="4234.28" waitingTime="40.00" waitingCount="1" stopTime="20.00" timeLoss="81.31" rerouteNo="1" devices="vehroute_45 tripinfo_45 emissions_45" vType="vecType" speedFactor="1.09" vaporized="">
        <emissions CO_abs="23208.784810" CO2_abs="1294392.058402" HC_abs="136.407555" PMx_abs="25.914342" NOx_abs="523.233592" fuel_abs="412852.096623" electricity_abs="0"/>
    </tripinfo>
    <tripinfo id="60" depart="18060.00" departLane="8916792_0" departPos="5.10" departSpeed="0.00" departDelay="0.00" arrival="18488.00" arrivalLane="8916792_0" arrivalPos="615.11" arrivalSpeed="12.09" duration="428.00" routeLength="3743.73" waitingTime="54.00" waitingCount="3" stopTime="20.00" timeLoss="97.84" rerouteNo="1" devices="vehroute_60 tripinfo_60 emissions_60" vType="vecType" speedFactor="1.08" vaporized="">
        <emissions CO_abs="19715.396968" CO2_abs="990559.756807" HC_abs="112.232149" PMx_abs="15.339101" NOx_abs="388.535936" fuel_abs="315948.545975" electricity_abs="0"/>
    </tripinfo>
    <tripinfo id="74" depart="18120.00" departLane="144489137#0_0" departPos="5.10" departSpeed="0.00" departDelay="0.00" arrival="18541.00" arrivalLane="144489137#0_0" arrivalPos="135.49" arrivalSpeed="9.71" duration="421.00" routeLength="2278.79" waitingTime="140.00" waitingCount="6" stopTime="20.00" timeLoss="190.16" rerouteNo="2" devices="vehroute_74 tripinfo_74 emissions_74" vType="vecType" speedFactor="0.96" vaporized="">
        <emissions CO_abs="34506.291410" CO2_abs="992434.896641" HC_abs="180.092968" PMx_abs="18.917033" NOx_abs="416.528665" fuel_abs="316551.651459" electricity_abs="0"/>
    </tripinfo>
    <tripinfo id="76" depart="18120.00" departLane="225806031#0_0" departPos="5.10" departSpeed="0.00" departDelay="0.00" arrival="18576.00" arrivalLane="225806031#0_0" arrivalPos="142.16" arrivalSpeed="11.28" duration="456.00" routeLength="3181.76" waitingTime="110.00" waitingCount="4" stopTime="20.00" timeLoss="161.32" rerouteNo="1" devices="vehroute_76 tripinfo_76 emissions_76" vType="vecType" speedFactor="1.03" vaporized="">
        <emissions CO_abs="31168.767362" CO2_abs="1149617.228745" HC_abs="168.404178" PMx_abs="20.159184" NOx_abs="469.188859" fuel_abs="366683.807456" electricity_abs="0"/>
    </tripinfo>
    <tripinfo id="28" depart="18009.00" departLane="90077241_0" departPos="5.10" departSpeed="0.00" departDelay="9.00" arrival="18645.00" arrivalLane="90077241_3" arrivalPos="3225.35" arrivalSpeed="32.63" duration="636.00" routeLength="12058.25" waitingTime="115.00" waitingCount="4" stopTime="20.00" timeLoss="176.36" rerouteNo="4" devices="vehroute_28 tripinfo_28 emissions_28" vType="vecType" speedFactor="1.13" vaporized="">
        <emissions CO_abs="70157.839064" CO2_abs="3308886.532803" HC_abs="402.157910" PMx_abs="76.449417" NOx_abs="1310.482982" fuel_abs="1055386.811261" electricity_abs="0"/>
    </tripinfo>
    <tripinfo id="49" depart="18063.00" departLane="31129765_0" departPos="5.10" departSpeed="0.00" departDelay="3.00" arrival="18663.00" arrivalLane="31129765_0" arrivalPos="639.51" arrivalSpeed="17.76" duration="600.00" routeLength="12944.78" waitingTime="0.00" waitingCount="0" stopTime="20.00" timeLoss="34.15" rerouteNo="1" devices="vehroute_49 tripinfo_49 emissions_49" vType="vecType" speedFactor="0.85" vaporized="">
        <emissions CO_abs="22796.273477" CO2_abs="2459202.143026" HC_abs="159.050085" PMx_abs="44.562447" NOx_abs="891.007446" fuel_abs="784369.488687" electricity_abs="0"/>
    </tripinfo>
    <tripinfo id="93" depart="18120.00" departLane="-254758121#2_0" departPos="5.10" departSpeed="0.00" departDelay="0.00" arrival="18663.00" arrivalLane="-254758121#2_0" arrivalPos="99.35" arrivalSpeed="9.63" duration="543.00" routeLength="4134.33" waitingTime="65.00" waitingCount="3" stopTime="20.00" timeLoss="121.27" rerouteNo="5" devices="vehroute_93 tripinfo_93 emissions_93" vType="vecType" speedFactor="0.92" vaporized="">
        <emissions CO_abs="27803.068225" CO2_abs="1239349.346851" HC_abs="154.978397" PMx_abs="19.521083" NOx_abs="493.945494" fuel_abs="395303.558992" electricity_abs="0"/>
    </tripinfo>
    <tripinfo id="16" depart="18006.00" departLane="90077241_0" departPos="5.10" departSpeed="0.00" departDelay="6.00" arrival="18688.00" arrivalLane="90077241_0" arrivalPos="3225.35" arrivalSpeed="24.65" duration="682.00" routeLength="11625.26" waitingTime="83.00" waitingCount="2" stopTime="20.00" timeLoss="138.26" rerouteNo="1" devices="vehroute_16 tripinfo_16 emissions_16" vType="vecType" speedFactor="0.88" vaporized="">
        <emissions CO_abs="41755.311683" CO2_abs="2636412.349395" HC_abs="251.188405" PMx_abs="51.074398" NOx_abs="1004.414261" fuel_abs="840897.069538" electricity_abs="0"/>
    </tripinfo>
    <tripinfo id="36" depart="18009.00" departLane="123867455_0" departPos="5.10" departSpeed="0.00" departDelay="9.00" arrival="18702.00" arrivalLane="123867455_0" arrivalPos="904.85" arrivalSpeed="27.40" duration="693.00" routeLength="5347.03" waitingTime="258.00" waitingCount="7" stopTime="20.00" timeLoss="339.54" rerouteNo="2" devices="vehroute_36 tripinfo_36 emissions_36" vType="vecType" speedFactor="0.97" vaporized="">
        <emissions CO_abs="66128.594861" CO2_abs="2122706.116173" HC_abs="351.349421" PMx_abs="44.082035" NOx_abs="885.546097" fuel_abs="677061.400825" electricity_abs="0"/>
    </tripinfo>
    <tripinfo id="68" depart="18060.00" departLane="27167762_0" departPos="5.10" departSpeed="0.00" departDelay="0.00" arrival="18714.00" arrivalLane="27167762_0" arrivalPos="139.02" arrivalSpeed="22.18" duration="654.00" routeLength="5749.79" waitingTime="154.00" waitingCount="7" stopTime="20.00" timeLoss="250.32" rerouteNo="4" devices="vehroute_68 tripinfo_68 emissions_68" vType="vecType" speedFactor="1.04" vaporized="">
        <emissions CO_abs="50797.591073" CO2_abs="2022897.392971" HC_abs="278.653902" PMx_abs="39.425191" NOx_abs="832.325222" fuel_abs="645220.983505" electricity_abs="0"/>
    </tripinfo>
    <tripinfo id="126" depart="18240.00" departLane="-133755930#1_0" departPos="5.10" departSpeed="0.00" departDelay="0.00" arrival="18722.00" arrivalLane="32931798#0_1" arrivalPos="6.91" arrivalSpeed="12.06" duration="482.00" routeLength="2795.24" waitingTime="216.00" waitingCount="6" stopTime="0.00" timeLoss="258.33" rerouteNo="4" devices="vehroute_126 tripinfo_126 emissions_126" vType="vecType" speedFactor="1.12" vaporized="">
        <emissions CO_abs="44744.352499" CO2_abs="1254981.823585" HC_abs="232.325652" PMx_abs="24.165595" NOx_abs="524.504614" fuel_abs="400295.515364" electricity_abs="0"/>
    </tripinfo>
    <tripinfo id="63" depart="18063.00" departLane="-204967525_0" departPos="5.10" departSpeed="0.00" departDelay="3.00" arrival="18749.00" arrivalLane="-204967525_1" arrivalPos="146.26" arrivalSpeed="10.24" duration="686.00" routeLength="4830.14" waitingTime="136.00" waitingCount="8" stopTime="20.00" timeLoss="227.46" rerouteNo="1" devices="vehroute_63 tripinfo_63 emissions_63" vType="vecType" speedFactor="0.99" vaporized="">
        <emissions CO_abs="42812.660431" CO2_abs="1591333.592796" HC_abs="231.563025" PMx_abs="27.034407" NOx_abs="645.186729" fuel_abs="507575.092435" electricity_abs="0"/>
    </tripinfo>
    <tripinfo id="15" depart="18000.00" departLane="-24310636#2_0" departPos="5.10" departSpeed="0.00" departDelay="0.00" arrival="18754.00" arrivalLane="-24310636#2_1" arrivalPos="108.36" arrivalSpeed="9.30" duration="754.00" routeLength="6010.81" waitingTime="128.00" waitingCount="7" stopTime="20.00" timeLoss="213.49" rerouteNo="1" devices="vehroute_15 tripinfo_15 emissions_15" vType="vecType" speedFactor="0.93" vaporized="">
        <emissions CO_abs="44907.522777" CO2_abs="1834147.212083" HC_abs="246.614113" PMx_abs="31.485227" NOx_abs="739.046506" fuel_abs="585020.590029" electricity_abs="0"/>
    </tripinfo>
    <tripinfo id="39" depart="18006.00" departLane="31129765_0" departPos="5.10" departSpeed="0.00" departDelay="6.00" arrival="18757.00" arrivalLane="31129765_0" arrivalPos="639.51" arrivalSpeed="19.51" duration="751.00" routeLength="6254.53" waitingTime="245.00" waitingCount="7" stopTime="20.00" timeLoss="314.84" rerouteNo="3" devices="vehroute_39 tripinfo_39 emissions_39" vType="vecType" speedFactor="0.90" vaporized="">
        <emissions CO_abs="62219.291806" CO2_abs="2171008.188885" HC_abs="332.994264" PMx_abs="42.164844" NOx_abs="886.615325" fuel_abs="692467.449047" electricity_abs="0"/>
    </tripinfo>
    <tripinfo id="20" depart="18000.00" departLane="123867455_0" departPos="5.10" departSpeed="0.00" departDelay="0.00" arrival="18760.00" arrivalLane="123867455_0" arrivalPos="904.85" arrivalSpeed="28.38" duration="760.00" routeLength="6719.97" waitingTime="210.00" waitingCount="7" stopTime="20.00" timeLoss="294.54" rerouteNo="3" devices="vehroute_20 tripinfo_20 emissions_20" vType="vecType" speedFactor="1.02" vaporized="">
        <emissions CO_abs="60493.445579" CO2_abs="2311731.442611" HC_abs="329.733199" PMx_abs="44.775402" NOx_abs="943.259400" fuel_abs="737349.544101" electricity_abs="0"/>
    </tripinfo>
    <tripinfo id="47" depart="18060.00" departLane="90077241_0" departPos="5.10" departSpeed="0.00" departDelay="0.00" arrival="18769.00" arrivalLane="90077241_0" arrivalPos="3225.35" arrivalSpeed="25.66" duration="709.00" routeLength="12027.49" waitingTime="55.00" waitingCount="3" stopTime="20.00" timeLoss="112.45" rerouteNo="6" devices="vehroute_47 tripinfo_47 emissions_47" vType="vecType" speedFactor="0.90" vaporized="">
        <emissions CO_abs="40572.173212" CO2_abs="2711001.606636" HC_abs="248.179893" PMx_abs="51.968209" NOx_abs="1030.432099" fuel_abs="864687.022915" electricity_abs="0"/>
    </tripinfo>
    <tripinfo id="114" depart="18240.00" departLane="-254758120#3_0" departPos="5.10" departSpeed="0.00" departDelay="0.00" arrival="18770.00" arrivalLane="-254758120#3_0" arrivalPos="147.41" arrivalSpeed="12.57" duration="530.00" routeLength="2930.82" waitingTime="220.00" waitingCount="8" stopTime="20.00" timeLoss="286.66" rerouteNo="5" devices="vehroute_114 tripinfo_114 emissions_114" vType="vecType" speedFactor="1.18" vaporized="">
        <emissions CO_abs="49928.419354" CO2_abs="1434979.353151" HC_abs="260.084288" PMx_abs="28.654063" NOx_abs="606.922546" fuel_abs="457706.422305" electricity_abs="0"/>
    </tripinfo>
    <tripinfo id="33" depart="18000.00" departLane="144489137#0_0" departPos="5.10" departSpeed="0.00" departDelay="0.00" arrival="18781.00" arrivalLane="144489137#0_0" arrivalPos="135.49" arrivalSpeed="11.83" duration="781.00" routeLength="3872.00" waitingTime="364.00" waitingCount="14" stopTime="20.00" timeLoss="467.75" rerouteNo="1" devices="vehroute_33 tripinfo_33 emissions_33" vType="vecType" speedFactor="1.17" vaporized="">
        <emissions CO_abs="79086.697474" CO2_abs="2088899.926878" HC_abs="407.935639" PMx_abs="42.825201" NOx_abs="891.472495" fuel_abs="666286.138984" electricity_abs="0"/>
    </tripinfo>
    <tripinfo id="82" depart="18123.00" departLane="-133781749_0" departPos="5.10" departSpeed="0.00" departDelay="3.00" arrival="18784.00" arrivalLane="-133781749_0" arrivalPos="138.68" arrivalSpeed="10.87" duration="661.00" routeLength="5499.56" waitingTime="108.00" waitingCount="9" stopTime="20.00" timeLoss="211.34" rerouteNo="1" devices="vehroute_82 tripinfo_82 emissions_82" vType="vecType" speedFactor="1.02" vaporized="">
        <emissions CO_abs="42365.970162" CO2_abs="1794811.257992" HC_abs="234.355015" PMx_abs="32.020764" NOx_abs="728.300169" fuel_abs="572471.846019" electricity_abs="0"/>
    </tripinfo>
    <tripinfo id="0" depart="18000.00" departLane="84823308_0" departPos="5.10" departSpeed="0.00" departDelay="0.00" arrival="18793.00" arrivalLane="84823308_0" arrivalPos="275.63" arrivalSpeed="11.64" duration="793.00" routeLength="5732.03" waitingTime="200.00" waitingCount="8" stopTime="20.00" timeLoss="288.87" rerouteNo="4" devices="vehroute_0 tripinfo_0 emissions_0" vType="vecType" speedFactor="1.06" vaporized="">
        <emissions CO_abs="53619.185302" CO2_abs="1977731.106277" HC_abs="289.391758" PMx_abs="34.680708" NOx_abs="805.459873" fuel_abs="630820.549123" electricity_abs="0"/>
    </tripinfo>
    <tripinfo id="31" depart="18006.00" departLane="123867455_0" departPos="5.10" departSpeed="0.00" departDelay="6.00" arrival="18796.00" arrivalLane="123867455_0" arrivalPos="904.85" arrivalSpeed="33.54" duration="790.00" routeLength="7632.90" waitingTime="184.00" waitingCount="8" stopTime="20.00" timeLoss="305.21" rerouteNo="1" devices="vehroute_31 tripinfo_31 emissions_31" vType="vecType" speedFactor="1.15" vaporized="">
        <emissions CO_abs="60507.523716" CO2_abs="2525360.620160" HC_abs="334.536211" PMx_abs="49.120386" NOx_abs="1030.535503" fuel_abs="805484.910228" electricity_abs="0"/>
    </tripinfo>
    <tripinfo id="13" depart="18003.00" departLane="90077241_0" departPos="5.10" departSpeed="0.00" departDelay="3.00" arrival="18836.00" arrivalLane="90077241_1" arrivalPos="3225.35" arrivalSpeed="32.48" duration="833.00" routeLength="12752.38" waitingTime="215.00" waitingCount="7" stopTime="20.00" timeLoss="292.44" rerouteNo="1" devices="vehroute_13 tripinfo_13 emissions_13" vType="vecType" speedFactor="1.12" vaporized="">
        <emissions CO_abs="87997.804545" CO2_abs="3692575.010529" HC_abs="491.815620" PMx_abs="83.180590" NOx_abs="1465.818389" fuel_abs="1177773.527106" electricity_abs="0"/>
    </tripinfo>
    <tripinfo id="132" depart="18300.00" departLane="142972028#1_0" departPos="5.10" departSpeed="0.00" departDelay="0.00" arrival="18842.00" arrivalLane="142972028#1_1" arrivalPos="161.20" arrivalSpeed="13.64" duration="542.00" routeLength="5492.34" waitingTime="78.00" waitingCount="5" stopTime="20.00" timeLoss="168.93" rerouteNo="2" devices="vehroute_132 tripinfo_132 emissions_132" vType="vecType" speedFactor="1.23" vaporized="">
        <emissions CO_abs="33890.349152" CO2_abs="1707428.953743" HC_abs="192.834141" PMx_abs="31.259672" NOx_abs="691.550990" fuel_abs="544595.744322" electricity_abs="0"/>
    </tripinfo>
    <tripinfo id="2" depart="18000.00" departLane="142972028#1_0" departPos="5.10" departSpeed="0.00" departDelay="0.00" arrival="18847.00" arrivalLane="142972028#1_0" arrivalPos="161.20" arrivalSpeed="10.26" duration="847.00" routeLength="6951.71" waitingTime="149.00" waitingCount="9" stopTime="20.00" timeLoss="269.14" rerouteNo="2" devices="vehroute_2 tripinfo_2 emissions_2" vType="vecType" speedFactor="1.01" vaporized="">
        <emissions CO_abs="52666.899587" CO2_abs="2212249.177846" HC_abs="290.918112" PMx_abs="38.553031" NOx_abs="893.584754" fuel_abs="705618.840003" electricity_abs="0"/>
    </tripinfo>
    <tripinfo id="84" depart="18123.00" departLane="90077241_0" departPos="5.10" departSpeed="0.00" departDelay="3.00" arrival="18849.00" arrivalLane="90077241_0" arrivalPos="3225.35" arrivalSpeed="32.74" duration="726.00" routeLength="12280.95" waitingTime="164.00" waitingCount="5" stopTime="20.00" timeLoss="230.70" rerouteNo="1" devices="vehroute_84 tripinfo_84 emissions_84" vType="vecType" speedFactor="1.15" vaporized="">
        <emissions CO_abs="79897.991773" CO2_abs="3442760.660294" HC_abs="449.026220" PMx_abs="79.219847" NOx_abs="1365.821619" fuel_abs="1098090.998986" electricity_abs="0"/>
    </tripinfo>
    <tripinfo id="40" depart="18000.00" departLane="-206679802#4_0" departPos="5.10" departSpeed="0.00" departDelay="0.00" arrival="18864.00" arrivalLane="-206679802#4_0" arrivalPos="292.11" arrivalSpeed="10.42" duration="864.00" routeLength="6247.90" waitingTime="212.00" waitingCount="7" stopTime="20.00" timeLoss="301.55" rerouteNo="7" devices="vehroute_40 tripinfo_40 emissions_40" vType="vecType" speedFactor="1.03" vaporized="">
        <emissions CO_abs="57831.080177" CO2_abs="2131332.107095" HC_abs="312.552602" PMx_abs="37.525417" NOx_abs="871.092009" fuel_abs="679813.093586" electricity_abs="0"/>
    </tripinfo>
    <tripinfo id="64" depart="18060.00" departLane="28319343#2_0" departPos="5.10" departSpeed="0.00" departDelay="0.00" arrival="18872.00" arrivalLane="28319343#2_0" arrivalPos="90.58" arrivalSpeed="9.41" duration="812.00" routeLength="9974.14" waitingTime="217.00" waitingCount="8" stopTime="0.00" timeLoss="285.55" rerouteNo="1" devices="vehroute_64 tripinfo_64 emissions_64" vType="vecType" speedFactor="0.94" vaporized="">
        <emissions CO_abs="64785.962275" CO2_abs="2753287.903353" HC_abs="360.008902" PMx_abs="54.641258" NOx_abs="1084.815608" fuel_abs="878185.585751" electricity_abs="0"/>
    </tripinfo>
    <tripinfo id="73" depart="18120.00" departLane="-204967525_0" departPos="5.10" departSpeed="0.00" departDelay="0.00" arrival="18878.00" arrivalLane="-204967525_1" arrivalPos="146.26" arrivalSpeed="11.44" duration="758.00" routeLength="5090.57" waitingTime="215.00" waitingCount="8" stopTime="20.00" timeLoss="306.27" rerouteNo="1" devices="vehroute_73 tripinfo_73 emissions_73" vType="vecType" speedFactor="1.06" vaporized="">
        <emissions CO_abs="57751.590594" CO2_abs="1984024.249183" HC_abs="308.667475" PMx_abs="36.739609" NOx_abs="822.679073" fuel_abs="632827.952050" electricity_abs="0"/>
    </tripinfo>
    <tripinfo id="53" depart="18060.00" departLane="-27029200#2_0" departPos="5.10" departSpeed="0.00" departDelay="0.00" arrival="18880.00" arrivalLane="-27029200#2_0" arrivalPos="66.62" arrivalSpeed="11.18" duration="820.00" routeLength="6523.22" waitingTime="195.00" waitingCount="9" stopTime="20.00" timeLoss="317.53" rerouteNo="4" devices="vehroute_53 tripinfo_53 emissions_53" vType="vecType" speedFactor="1.10" vaporized="">
        <emissions CO_abs="57554.031340" CO2_abs="2226681.807515" HC_abs="313.341065" PMx_abs="40.925135" NOx_abs="914.520027" fuel_abs="710222.586369" electricity_abs="0"/>
    </tripinfo>
    <tripinfo id="27" depart="18000.00" departLane="-8916048_0" departPos="5.10" departSpeed="0.00" departDelay="0.00" arrival="18883.00" arrivalLane="-8916048_0" arrivalPos="126.72" arrivalSpeed="10.46" duration="883.00" routeLength="6742.86" waitingTime="180.00" waitingCount="8" stopTime="20.00" timeLoss="284.91" rerouteNo="1" devices="vehroute_27 tripinfo_27 emissions_27" vType="vecType" speedFactor="0.95" vaporized="">
        <emissions CO_abs="57254.951005" CO2_abs="2222963.856389" HC_abs="311.915233" PMx_abs="38.770422" NOx_abs="901.401775" fuel_abs="709038.793681" electricity_abs="0"/>
    </tripinfo>
    <tripinfo id="85" depart="18126.00" departLane="90077241_0" departPos="5.10" departSpeed="0.00" departDelay="6.00" arrival="18888.00" arrivalLane="90077241_0" arrivalPos="3225.35" arrivalSpeed="27.45" duration="762.00" routeLength="11984.76" waitingTime="143.00" waitingCount="6" stopTime="20.00" timeLoss="211.85" rerouteNo="1" devices="vehroute_85 tripinfo_85 emissions_85" vType="vecType" speedFactor="0.98" vaporized="">
        <emissions CO_abs="60187.171475" CO2_abs="3028779.011430" HC_abs="346.796391" PMx_abs="62.468932" NOx_abs="1169.050834" fuel_abs="966049.279669" electricity_abs="0"/>
    </tripinfo>
    <tripinfo id="42" depart="18009.00" departLane="31129765_0" departPos="5.10" departSpeed="0.00" departDelay="9.00" arrival="18891.00" arrivalLane="31129765_0" arrivalPos="639.51" arrivalSpeed="24.24" duration="882.00" routeLength="7763.38" waitingTime="284.00" waitingCount="12" stopTime="20.00" timeLoss="393.74" rerouteNo="1" devices="vehroute_42 tripinfo_42 emissions_42" vType="vecType" speedFactor="1.09" vaporized="">
        <emissions CO_abs="78673.121505" CO2_abs="2851166.854230" HC_abs="425.000601" PMx_abs="57.485754" NOx_abs="1177.016325" fuel_abs="909407.791059" electricity_abs="0"/>
    </tripinfo>
    <tripinfo id="117" depart="18240.00" departLane="27167762_0" departPos="5.10" departSpeed="0.00" departDelay="0.00" arrival="18891.00" arrivalLane="27167762_0" arrivalPos="139.02" arrivalSpeed="23.48" duration="651.00" routeLength="5016.55" waitingTime="227.00" waitingCount="9" stopTime="20.00" timeLoss="318.15" rerouteNo="1" devices="vehroute_117 tripinfo_117 emissions_117" vType="vecType" speedFactor="1.07" vaporized="">
        <emissions CO_abs="62169.002920" CO2_abs="2099677.063177" HC_abs="332.670446" PMx_abs="43.615471" NOx_abs="882.581483" fuel_abs="669713.462624" electricity_abs="0"/>
    </tripinfo>
    <tripinfo id="21" depart="18000.00" departLane="27167762_0" departPos="5.10" departSpeed="0.00" departDelay="0.00" arrival="18895.00" arrivalLane="27167762_0" arrivalPos="139.02" arrivalSpeed="21.94" duration="895.00" routeLength="6354.01" waitingTime="308.00" waitingCount="13" stopTime="20.00" timeLoss="426.98" rerouteNo="11" devices="vehroute_21 tripinfo_21 emissions_21" vType="vecType" speedFactor="1.01" vaporized="">
        <emissions CO_abs="81681.021924" CO2_abs="2686104.178933" HC_abs="435.062319" PMx_abs="53.895053" NOx_abs="1123.281920" fuel_abs="856763.419393" electricity_abs="0"/>
    </tripinfo>
    <tripinfo id="29" depart="18000.00" departLane="-35977367#2_0" departPos="5.10" departSpeed="0.00" departDelay="0.00" arrival="18898.00" arrivalLane="-35977367#2_0" arrivalPos="431.73" arrivalSpeed="9.89" duration="898.00" routeLength="6273.32" waitingTime="176.00" waitingCount="8" stopTime="20.00" timeLoss="275.46" rerouteNo="3" devices="vehroute_29 tripinfo_29 emissions_29" vType="vecType" speedFactor="0.93" vaporized="">
        <emissions CO_abs="56218.065995" CO2_abs="2105078.909173" HC_abs="304.357125" PMx_abs="35.436307" NOx_abs="853.509834" fuel_abs="671440.282770" electricity_abs="0"/>
    </tripinfo>
    <tripinfo id="25" depart="18003.00" departLane="-23883761_0" departPos="5.10" departSpeed="0.00" departDelay="3.00" arrival="18905.00" arrivalLane="-23883761_0" arrivalPos="197.88" arrivalSpeed="9.49" duration="902.00" routeLength="5896.49" waitingTime="172.00" waitingCount="11" stopTime="20.00" timeLoss="277.27" rerouteNo="2" devices="vehroute_25 tripinfo_25 emissions_25" vType="vecType" speedFactor="0.87" vaporized="">
        <emissions CO_abs="55960.906213" CO2_abs="1946445.385503" HC_abs="299.383018" PMx_abs="32.717626" NOx_abs="790.941301" fuel_abs="620844.622131" electricity_abs="0"/>
    </tripinfo>
    <tripinfo id="79" depart="18120.00" departLane="-24310636#2_0" departPos="5.10" departSpeed="0.00" departDelay="0.00" arrival="18905.00" arrivalLane="-24310636#2_1" arrivalPos="108.36" arrivalSpeed="12.00" duration="785.00" routeLength="6581.41" waitingTime="175.00" waitingCount="7" stopTime="20.00" timeLoss="274.08" rerouteNo="1" devices="vehroute_79 tripinfo_79 emissions_79" vType="vecType" speedFactor="1.09" vaporized="">
        <emissions CO_abs="54198.249804" CO2_abs="2179325.043850" HC_abs="297.252728" PMx_abs="40.178604" NOx_abs="890.925507" fuel_abs="695116.632854" electricity_abs="0"/>
    </tripinfo>
    <tripinfo id="10" depart="18000.00" departLane="90077241_0" departPos="5.10" departSpeed="0.00" departDelay="0.00" arrival="18908.00" arrivalLane="90077241_0" arrivalPos="3225.35" arrivalSpeed="30.72" duration="908.00" routeLength="12917.03" waitingTime="238.00" waitingCount="9" stopTime="20.00" timeLoss="338.38" rerouteNo="5" devices="vehroute_10 tripinfo_10 emissions_10" vType="vecType" speedFactor="1.09" vaporized="">
        <emissions CO_abs="92000.423999" CO2_abs="3814318.149462" HC_abs="512.628401" PMx_abs="84.368413" NOx_abs="1516.732624" fuel_abs="1216605.867064" electricity_abs="0"/>
    </tripinfo>
    <tripinfo id="104" depart="18180.00" departLane="8915254_0" departPos="5.10" departSpeed="0.00" departDelay="0.00" arrival="18912.00" arrivalLane="8915254_0" arrivalPos="317.12" arrivalSpeed="18.89" duration="732.00" routeLength="5882.36" waitingTime="139.00" waitingCount="6" stopTime="20.00" timeLoss="218.12" rerouteNo="2" devices="vehroute_104 tripinfo_104 emissions_104" vType="vecType" speedFactor="0.89" vaporized="">
        <emissions CO_abs="46532.621247" CO2_abs="1882715.761792" HC_abs="255.274525" PMx_abs="33.114766" NOx_abs="762.724917" fuel_abs="600511.506287" electricity_abs="0"/>
    </tripinfo>
    <tripinfo id="127" depart="18240.00" departLane="-204967525_0" departPos="5.10" departSpeed="0.00" departDelay="0.00" arrival="18929.00" arrivalLane="-204967525_1" arrivalPos="146.26" arrivalSpeed="11.01" duration="689.00" routeLength="5247.72" waitingTime="106.00" waitingCount="12" stopTime="20.00" timeLoss="203.07" rerouteNo="1" devices="vehroute_127 tripinfo_127 emissions_127" vType="vecType" speedFactor="1.01" vaporized="">
        <emissions CO_abs="40228.197801" CO2_abs="1658459.998400" HC_abs="221.393940" PMx_abs="27.856042" NOx_abs="669.901663" fuel_abs="528983.476854" electricity_abs="0"/>
    </tripinfo>
    <tripinfo id="135" depart="18360.00" departLane="90077241_0" departPos="5.10" departSpeed="0.00" departDelay="0.00" arrival="18930.00" arrivalLane="90077241_0" arrivalPos="3225.35" arrivalSpeed="29.24" duration="570.00" routeLength="11126.88" waitingTime="71.00" waitingCount="3" stopTime="20.00" timeLoss="116.00" rerouteNo="1" devices="vehroute_135 tripinfo_135 emissions_135" vType="vecType" speedFactor="1.02" vaporized="">
        <emissions CO_abs="46632.427779" CO2_abs="2674952.862976" HC_abs="277.776523" PMx_abs="57.185163" NOx_abs="1017.942952" fuel_abs="853189.844150" electricity_abs="0"/>
    </tripinfo>
    <tripinfo id="24" depart="18003.00" departLane="123867455_0" departPos="5.10" departSpeed="0.00" departDelay="3.00" arrival="18949.00" arrivalLane="123867455_0" arrivalPos="904.85" arrivalSpeed="22.86" duration="946.00" routeLength="6219.34" waitingTime="291.00" waitingCount="13" stopTime="20.00" timeLoss="408.61" rerouteNo="2" devices="vehroute_24 tripinfo_24 emissions_24" vType="vecType" speedFactor="0.83" vaporized="">
        <emissions CO_abs="80874.372911" CO2_abs="2490544.273418" HC_abs="425.339449" PMx_abs="48.606735" NOx_abs="1029.479906" fuel_abs="794391.940311" electricity_abs="0"/>
    </tripinfo>
    <tripinfo id="43" depart="18012.00" departLane="123867455_0" departPos="5.10" departSpeed="0.00" departDelay="12.00" arrival="18957.00" arrivalLane="123867455_0" arrivalPos="904.85" arrivalSpeed="30.08" duration="945.00" routeLength="8280.56" waitingTime="223.00" waitingCount="12" stopTime="20.00" timeLoss="352.34" rerouteNo="2" devices="vehroute_43 tripinfo_43 emissions_43" vType="vecType" speedFactor="1.04" vaporized="">
        <emissions CO_abs="70885.360713" CO2_abs="2832020.866741" HC_abs="388.845050" PMx_abs="53.843164" NOx_abs="1156.409060" fuel_abs="903299.452442" electricity_abs="0"/>
    </tripinfo>