<?xml version="1.0" encoding="UTF-8"?>

<!-- generated on 2022-12-12 13:01:28 by Eclipse SUMO sumo Version 1.14.1
<configuration xmlns:xsi="http://www.w3.org/2001/XMLSchema-instance" xsi:noNamespaceSchemaLocation="http://sumo.dlr.de/xsd/sumoConfiguration.xsd">

    <input>
        <net-file value="./strategia1_config/../san_francisco.net.xml"/>
        <route-files value="./strategia1_config/../san_francisco.rou.xml"/>
        <additional-files value="./strategia1_config/../san_francisco.poly.xml,./strategia1_config/../parking_capacity_100%25/off_parking_100%25.add.xml,./strategia1_config/../parking_capacity_100%25/on_parking_100%25.add.xml"/>
    </input>

    <output>
        <emission-output value="./strategia1_config/../output/strategia1/100%25/emission.xml"/>
        <summary-output value="./strategia1_config/../output/strategia1/100%25/summary.xml"/>
        <tripinfo-output value="./strategia1_config/../output/strategia1/100%25/tripinfo.xml"/>
        <vehroute-output value="./strategia1_config/../output/strategia1/100%25/vehroute.xml"/>
        <stop-output value="./strategia1_config/../output/strategia1/100%25/stops.xml"/>
        <collision-output value="./strategia1_config/../output/strategia1/100%25/collision.xml"/>
        <statistic-output value="./strategia1_config/../output/strategia1/100%25/statistic.xml"/>
    </output>

    <time>
        <step-length value="1"/>
    </time>

    <processing>
        <ignore-route-errors value="false"/>
        <time-to-teleport value="-1"/>
    </processing>

    <report>
        <verbose value="true"/>
        <xml-validation value="never"/>
    </report>

    <traci_server>
        <remote-port value="55153"/>
    </traci_server>

    <gui_only>
        <gui-settings-file value="./strategia1_config/../gui-settings.cfg"/>
        <start value="true"/>
    </gui_only>

</configuration>
-->

<tripinfos xmlns:xsi="http://www.w3.org/2001/XMLSchema-instance" xsi:noNamespaceSchemaLocation="http://sumo.dlr.de/xsd/tripinfo_file.xsd">
    <tripinfo id="35" depart="18000.00" departLane="191296172#0_0" departPos="5.10" departSpeed="0.00" departDelay="0.00" arrival="18607.00" arrivalLane="-47108420#4_0" arrivalPos="5.44" arrivalSpeed="11.29" duration="607.00" routeLength="4097.72" waitingTime="189.00" waitingCount="7" stopTime="0.00" timeLoss="247.55" rerouteNo="1" devices="vehroute_35 tripinfo_35 emissions_35" vType="vecType" speedFactor="1.02" vaporized="">
        <emissions CO_abs="45448.681290" CO2_abs="1491755.923059" HC_abs="241.273458" PMx_abs="26.422575" NOx_abs="610.281603" fuel_abs="475815.860024" electricity_abs="0"/>
    </tripinfo>
    <tripinfo id="21" depart="18000.00" departLane="27167762_0" departPos="5.10" departSpeed="0.00" departDelay="0.00" arrival="18710.00" arrivalLane="27167762_0" arrivalPos="139.02" arrivalSpeed="21.94" duration="710.00" routeLength="12026.47" waitingTime="113.00" waitingCount="6" stopTime="0.00" timeLoss="175.79" rerouteNo="4" devices="vehroute_21 tripinfo_21 emissions_21" vType="vecType" speedFactor="1.01" vaporized="">
        <emissions CO_abs="57167.489211" CO2_abs="3018883.963885" HC_abs="333.802601" PMx_abs="62.806024" NOx_abs="1171.325087" fuel_abs="962890.827043" electricity_abs="0"/>
    </tripinfo>
    <tripinfo id="64" depart="18060.00" departLane="28319343#2_0" departPos="5.10" departSpeed="0.00" departDelay="0.00" arrival="18872.00" arrivalLane="28319343#2_0" arrivalPos="90.58" arrivalSpeed="9.60" duration="812.00" routeLength="9974.14" waitingTime="219.00" waitingCount="8" stopTime="0.00" timeLoss="285.33" rerouteNo="1" devices="vehroute_64 tripinfo_64 emissions_64" vType="vecType" speedFactor="0.94" vaporized="">
        <emissions CO_abs="64641.056841" CO2_abs="2735353.410267" HC_abs="358.797447" PMx_abs="54.411822" NOx_abs="1077.848359" fuel_abs="872465.289088" electricity_abs="0"/>
    </tripinfo>
    <tripinfo id="56" depart="18066.00" departLane="31129765_0" departPos="5.10" departSpeed="0.00" departDelay="6.00" arrival="18970.00" arrivalLane="31129765_0" arrivalPos="639.51" arrivalSpeed="18.95" duration="904.00" routeLength="13447.31" waitingTime="170.00" waitingCount="5" stopTime="0.00" timeLoss="238.82" rerouteNo="4" devices="vehroute_56 tripinfo_56 emissions_56" vType="vecType" speedFactor="0.90" vaporized="">
        <emissions CO_abs="61852.837116" CO2_abs="3248670.796337" HC_abs="357.484032" PMx_abs="63.088338" NOx_abs="1256.367506" fuel_abs="1036185.420477" electricity_abs="0"/>
    </tripinfo>
    <tripinfo id="68" depart="18060.00" departLane="27167762_0" departPos="5.10" departSpeed="0.00" departDelay="0.00" arrival="18982.00" arrivalLane="27167762_0" arrivalPos="139.02" arrivalSpeed="22.19" duration="922.00" routeLength="13013.44" waitingTime="210.00" waitingCount="11" stopTime="0.00" timeLoss="317.21" rerouteNo="13" devices="vehroute_68 tripinfo_68 emissions_68" vType="vecType" speedFactor="1.04" vaporized="">
        <emissions CO_abs="82174.971710" CO2_abs="3639816.864150" HC_abs="462.642447" PMx_abs="77.149599" NOx_abs="1440.490415" fuel_abs="1160946.400088" electricity_abs="0"/>
    </tripinfo>
    <tripinfo id="71" depart="18120.00" departLane="52432938#0_0" departPos="5.10" departSpeed="0.00" departDelay="0.00" arrival="19059.00" arrivalLane="52432938#0_1" arrivalPos="69.49" arrivalSpeed="10.77" duration="939.00" routeLength="10567.87" waitingTime="321.00" waitingCount="9" stopTime="0.00" timeLoss="412.57" rerouteNo="1" devices="vehroute_71 tripinfo_71 emissions_71" vType="vecType" speedFactor="0.97" vaporized="">
        <emissions CO_abs="88473.713278" CO2_abs="3316883.073765" HC_abs="481.995234" PMx_abs="68.898728" NOx_abs="1331.777489" fuel_abs="1057952.280104" electricity_abs="0"/>
    </tripinfo>
    <tripinfo id="94" depart="18120.00" departLane="254758124#0_0" departPos="5.10" departSpeed="0.00" departDelay="0.00" arrival="19248.00" arrivalLane="254758124#0_1" arrivalPos="106.41" arrivalSpeed="11.57" duration="1128.00" routeLength="12426.75" waitingTime="381.00" waitingCount="15" stopTime="0.00" timeLoss="505.36" rerouteNo="1" devices="vehroute_94 tripinfo_94 emissions_94" vType="vecType" speedFactor="1.09" vaporized="">
        <emissions CO_abs="111998.018967" CO2_abs="4082071.296041" HC_abs="608.052521" PMx_abs="86.719047" NOx_abs="1646.841840" fuel_abs="1302016.833419" electricity_abs="0"/>
    </tripinfo>
    <tripinfo id="69" depart="18060.00" departLane="-206679802#4_0" departPos="5.10" departSpeed="0.00" departDelay="0.00" arrival="19490.00" arrivalLane="-206679802#4_0" arrivalPos="292.11" arrivalSpeed="11.10" duration="1430.00" routeLength="15153.12" waitingTime="318.00" waitingCount="18" stopTime="0.00" timeLoss="493.43" rerouteNo="4" devices="vehroute_69 tripinfo_69 emissions_69" vType="vecType" speedFactor="1.02" vaporized="">
        <emissions CO_abs="107567.643143" CO2_abs="4465342.185875" HC_abs="595.650160" PMx_abs="86.782165" NOx_abs="1779.847743" fuel_abs="1424262.071040" electricity_abs="0"/>
    </tripinfo>
