<?xml version="1.0" encoding="UTF-8"?>

<!-- generated on 2022-12-17 16:38:18 by Eclipse SUMO sumo Version 1.14.1
<configuration xmlns:xsi="http://www.w3.org/2001/XMLSchema-instance" xsi:noNamespaceSchemaLocation="http://sumo.dlr.de/xsd/sumoConfiguration.xsd">

    <input>
        <net-file value="./strategia1_config/../san_francisco.net.xml"/>
        <route-files value="./strategia1_config/../san_francisco.rou.xml"/>
        <additional-files value="./strategia1_config/../san_francisco.poly.xml,./strategia1_config/../parking_capacity_100%25/off_parking_100%25.add.xml,./strategia1_config/../parking_capacity_100%25/on_parking_100%25.add.xml"/>
    </input>

    <output>
        <emission-output value="./strategia1_config/../output/strategia1/100%25/emissions.xml"/>
        <tripinfo-output value="./strategia1_config/../output/strategia1/100%25/tripinfo.xml"/>
        <vehroute-output value="./strategia1_config/../output/strategia1/100%25/vehroute.xml"/>
        <stop-output value="./strategia1_config/../output/strategia1/100%25/stops.xml"/>
        <collision-output value="./strategia1_config/../output/strategia1/100%25/collision.xml"/>
        <statistic-output value="./strategia1_config/../output/strategia1/100%25/statistic.xml"/>
    </output>

    <time>
        <step-length value="1"/>
    </time>

    <processing>
        <ignore-route-errors value="false"/>
        <time-to-teleport value="-1"/>
    </processing>

    <report>
        <verbose value="true"/>
        <xml-validation value="never"/>
    </report>

    <traci_server>
        <remote-port value="64419"/>
    </traci_server>

    <gui_only>
        <gui-settings-file value="./strategia1_config/../gui-settings.cfg"/>
        <start value="true"/>
    </gui_only>

</configuration>
-->

<routes xmlns:xsi="http://www.w3.org/2001/XMLSchema-instance" xsi:noNamespaceSchemaLocation="http://sumo.dlr.de/xsd/routes_file.xsd">
    <vehicle id="30" type="vecType" depart="18000.00" arrival="18345.00">
        <routeDistribution>
            <route replacedOnEdge="206662304#13" replacedOnIndex="19" reason="traci:changeTarget" replacedAtTime="18160.00" probability="0" edges="-91181760#0 29059494 29059495#0 29059495#3 -133376114#2 30029172#2 27166421#8 24335483#4 -288065247#0 8920093#1 254758127#0 72981813#3 26938338#0 -87297164#7 -87297164#6 -87297164#5 -87297164#4 -87297164#3 206662304#12 206662304#13"/>
            <route edges="-91181760#0 29059494 29059495#0 29059495#3 -133376114#2 30029172#2 27166421#8 24335483#4 -288065247#0 8920093#1 254758127#0 72981813#3 26938338#0 -87297164#7 -87297164#6 -87297164#5 -87297164#4 -87297164#3 206662304#12 206662304#13 -206662304#13 -206662304#12 87297164#3 87297164#4 87297164#5 87297164#6 87297164#7 87297164#8 26938417 26938418#0 26938418#1 26938418#2 -24335483#8 -24335483#6 -24335483#5 -27166421#8 -27166421#7 -27166421#6 -27166421#5 27398045#7 8919058 8916882#0 -91181760#0"/>
        </routeDistribution>
        <stop parkingArea="parkingArea_206662304#13_0_660" duration="20.00" parking="1"/>
    </vehicle>

    <vehicle id="1" type="vecType" depart="18000.00" arrival="18354.00">
        <routeDistribution>
            <route replacedOnEdge="8922291#0" replacedOnIndex="12" reason="traci:changeTarget" replacedAtTime="18127.00" probability="0" edges="31129765 123741465 8915117 8915115#0 8915115#1 254299118#0 254299118#1 254299118#2 254299118#3 -254305050#1 -254305050#0 -264874017#5 8922291#0"/>
            <route edges="31129765 123741465 8915117 8915115#0 8915115#1 254299118#0 254299118#1 254299118#2 254299118#3 -254305050#1 -254305050#0 -264874017#5 8922291#0 214545530#7 143617585#0 143617585#1 143617585#2 254305033#0 254305033#1 254305033#2 254305033#3 254305033#4 254305033#5 8915588 254299122 154966358 gneE27 31129765"/>
        </routeDistribution>
        <stop parkingArea="parkingArea_8922291#0_0_762" duration="20.00" parking="1"/>
    </vehicle>

    <vehicle id="45" type="vecType" depart="18060.00" arrival="18385.00">
        <routeDistribution>
            <route replacedOnEdge="-43100739" replacedOnIndex="12" reason="traci:changeTarget" replacedAtTime="18211.00" probability="0" edges="31129765 123741465 8915117 27432609 157812260#7 157812260#8 157812260#9 25657409#10 25657409#11 25657409#12 25657409#13 25657409#14 -43100739"/>
            <route edges="31129765 123741465 8915117 27432609 157812260#7 157812260#8 157812260#9 25657409#10 25657409#11 25657409#12 25657409#13 25657409#14 -43100739 43100739 25657409#15 43100740 254305033#1 254305033#2 254305033#3 254305033#4 254305033#5 8915588 254299122 154966358 gneE27 31129765"/>
        </routeDistribution>
        <stop parkingArea="parkingArea_-43100739_0_743" duration="20.00" parking="1"/>
    </vehicle>

    <vehicle id="28" type="vecType" depart="18009.00" arrival="18647.00">
        <routeDistribution>
            <route replacedOnEdge="47172834#0" replacedOnIndex="13" reason="traci:setRoute" replacedAtTime="18309.00" probability="0" edges="90077241 8921938 120813417 31129372 35675861#1 283537552#0 283537552#1 283537644#0 283537644#2 88559661#0 88559661#1 88559680#0 8916551 47172834#0 -8919616#1"/>
            <route replacedOnEdge="8919616#1" replacedOnIndex="15" reason="traci:changeTarget" replacedAtTime="18319.00" probability="0" edges="90077241 8921938 120813417 31129372 35675861#1 283537552#0 283537552#1 283537644#0 283537644#2 88559661#0 88559661#1 88559680#0 8916551 47172834#0 -8919616#1 8919616#1"/>
            <route edges="90077241 8921938 120813417 31129372 35675861#1 283537552#0 283537552#1 283537644#0 283537644#2 88559661#0 88559661#1 88559680#0 8916551 47172834#0 -8919616#1 8919616#1 -8919616#1 -8919616#0 254299117#1 88559650 175354957#0 175354957#1 50690291#1 gneE4 90077241"/>
        </routeDistribution>
        <stop parkingArea="parkingArea_8919616#1_0_491" duration="20.00" parking="1"/>
    </vehicle>

    <vehicle id="49" type="vecType" depart="18063.00" arrival="18664.00">
        <routeDistribution>
            <route replacedOnEdge="31129732#0" replacedOnIndex="15" reason="traci:changeTarget" replacedAtTime="18511.00" probability="0" edges="31129765 123741465 123741454#0 123741454#1 123741454#2 123741454#3 123741452 202317709 50690291#0 50690291#1 gneE4 90077241 8921938 120813417 202485364 31129732#0"/>
            <route edges="31129765 123741465 123741454#0 123741454#1 123741454#2 123741454#3 123741452 202317709 50690291#0 50690291#1 gneE4 90077241 8921938 120813417 202485364 31129732#0 31129732#1 31129732#2 254299122 154966358 gneE27 31129765"/>
        </routeDistribution>
        <stop parkingArea="parkingArea_31129732#0_0_532" duration="20.00" parking="1"/>
    </vehicle>

    <vehicle id="16" type="vecType" depart="18006.00" arrival="18689.00">
        <routeDistribution>
            <route replacedOnEdge="-225518512#1" replacedOnIndex="9" reason="traci:changeTarget" replacedAtTime="18279.00" probability="0" edges="90077241 8921938 120813417 31129372 35675861#1 283537552#0 283537552#1 283537644#0 283537644#2 -225518512#1"/>
            <route edges="90077241 8921938 120813417 31129372 35675861#1 283537552#0 283537552#1 283537644#0 283537644#2 -225518512#1 225518502#0 329607867 27772070 202317709 50690291#0 50690291#1 gneE4 90077241"/>
        </routeDistribution>
        <stop parkingArea="parkingArea_-225518512#1_0_517" duration="20.00" parking="1"/>
    </vehicle>

    <vehicle id="36" type="vecType" depart="18009.00" arrival="18703.00">
        <routeDistribution>
            <route replacedOnEdge="255330036#10" replacedOnIndex="11" reason="traci:setRoute" replacedAtTime="18375.00" probability="0" edges="123867455 8920391#0 255330048 255351721#0 -27656675 26943623 -111550911#3 -111550911#2 -111550911#1 -111550911#0 -88559680#5 255330036#10 255330036#11"/>
            <route replacedOnEdge="-255330036#11" replacedOnIndex="13" reason="traci:changeTarget" replacedAtTime="18387.00" probability="0" edges="123867455 8920391#0 255330048 255351721#0 -27656675 26943623 -111550911#3 -111550911#2 -111550911#1 -111550911#0 -88559680#5 255330036#10 255330036#11 -255330036#11"/>
            <route edges="123867455 8920391#0 255330048 255351721#0 -27656675 26943623 -111550911#3 -111550911#2 -111550911#1 -111550911#0 -88559680#5 255330036#10 255330036#11 -255330036#11 -255330036#10 88559680#5 224384059#0 8920394#1 27145438#0 255330047#0 30454437 gneE21 123867455"/>
        </routeDistribution>
        <stop parkingArea="parkingArea_-255330036#11_0_91" duration="20.00" parking="1"/>
    </vehicle>

    <vehicle id="31" type="vecType" depart="18006.00" arrival="18726.00">
        <routeDistribution>
            <route replacedOnEdge="111089307#4" replacedOnIndex="20" reason="traci:changeTarget" replacedAtTime="18483.00" probability="0" edges="123867455 8920391#0 255330048 255351748 -26943653#1 -143617589#6 143617589#3 -143617587 -133755923#1 -133755923#0 157812260#0 -247966218#2 -26943758#1 162931810 256787755#0 254299121#8 254299121#9 25758513 27029200#0 -111089307#4 111089307#4"/>
            <route edges="123867455 8920391#0 255330048 255351748 -26943653#1 -143617589#6 143617589#3 -143617587 -133755923#1 -133755923#0 157812260#0 -247966218#2 -26943758#1 162931810 256787755#0 254299121#8 254299121#9 25758513 27029200#0 -111089307#4 111089307#4 -27029200#1 -25758513 27029265#3 186400366#0 186400366#1 186400366#2 247960234#1 247966218#0 247966218#3 247966218#4 247966218#5 247966218#6 247966218#7 247966218#8 8918874 gneE21 123867455"/>
        </routeDistribution>
        <stop parkingArea="parkingArea_111089307#4_0_960" duration="20.00" parking="1"/>
    </vehicle>

    <vehicle id="15" type="vecType" depart="18000.00" arrival="18755.00">
        <routeDistribution>
            <route replacedOnEdge="254299142#3" replacedOnIndex="29" reason="traci:changeTarget" replacedAtTime="18422.00" probability="0" edges="-24310636#2 111089307#1 111089307#2 191296172#1 25657409#0 25657409#2 25657409#3 25657409#4 25657409#5 25657409#7 25657409#9 25657409#10 25657409#11 25657409#12 25657409#13 25657409#14 25657409#15 25657409#16 25657409#17 25657409#18 214545530#3 214545530#4 8922291#1 283534317#8 143617591 107674371#0 47172784 254299142#1 254299142#2 254299142#3"/>
            <route edges="-24310636#2 111089307#1 111089307#2 191296172#1 25657409#0 25657409#2 25657409#3 25657409#4 25657409#5 25657409#7 25657409#9 25657409#10 25657409#11 25657409#12 25657409#13 25657409#14 25657409#15 25657409#16 25657409#17 25657409#18 214545530#3 214545530#4 8922291#1 283534317#8 143617591 107674371#0 47172784 254299142#1 254299142#2 254299142#3 255168046#0 8919328#1 88559702#2 25758528#0 25758528#1 8915151 31129732#1 26779355 8915704#0 8915704#1 254299121#6 254299121#8 254299121#9 25758513 27029200#0 -111089307#4 -111089307#3 -111089307#2 -111089307#1 24310636#2 -24310636#2"/>
        </routeDistribution>
        <stop parkingArea="parkingArea_254299142#3_0_508" duration="20.00" parking="1"/>
    </vehicle>

    <vehicle id="20" type="vecType" depart="18000.00" arrival="18758.00">
        <routeDistribution>
            <route replacedOnEdge="91181771#4" replacedOnIndex="18" reason="traci:setRoute" replacedAtTime="18394.00" probability="0" edges="123867455 8920391#0 255330048 255351721#0 -27656675 26943623 133735130#0 255330036#7 -8919615#1 -8919615#0 8916553#1 -8916551 -88559680#2 -88559661#2 -88559661#0 -225518512#1 -88559691#6 91181771#3 91181771#4 91181771#5"/>
            <route replacedOnEdge="91181771#5" replacedOnIndex="19" reason="traci:setRoute" replacedAtTime="18407.00" probability="0" edges="123867455 8920391#0 255330048 255351721#0 -27656675 26943623 133735130#0 255330036#7 -8919615#1 -8919615#0 8916553#1 -8916551 -88559680#2 -88559661#2 -88559661#0 -225518512#1 -88559691#6 91181771#3 91181771#4 91181771#5 91181771#6"/>
            <route replacedOnEdge="91181771#15" replacedOnIndex="21" reason="traci:changeTarget" replacedAtTime="18485.00" probability="0" edges="123867455 8920391#0 255330048 255351721#0 -27656675 26943623 133735130#0 255330036#7 -8919615#1 -8919615#0 8916553#1 -8916551 -88559680#2 -88559661#2 -88559661#0 -225518512#1 -88559691#6 91181771#3 91181771#4 91181771#5 91181771#6 91181771#15"/>
            <route edges="123867455 8920391#0 255330048 255351721#0 -27656675 26943623 133735130#0 255330036#7 -8919615#1 -8919615#0 8916553#1 -8916551 -88559680#2 -88559661#2 -88559661#0 -225518512#1 -88559691#6 91181771#3 91181771#4 91181771#5 91181771#6 91181771#15 91181771#16 264874017#0 264874017#3 264874017#4 264874017#5 254305050#0 254305050#1 254308553 8918874 gneE21 123867455"/>
        </routeDistribution>
        <stop parkingArea="parkingArea_91181771#15_0_723" duration="20.00" parking="1"/>
    </vehicle>

    <vehicle id="39" type="vecType" depart="18006.00" arrival="18759.00">
        <routeDistribution>
            <route replacedOnEdge="-88559661#2" replacedOnIndex="15" reason="traci:setRoute" replacedAtTime="18334.00" probability="0" edges="31129765 123741465 8915117 8915115#0 8915115#1 254299118#0 254299118#1 254299118#2 254299118#3 254308548#0 254308548#2 186400365 143666207#0 254299117#0 254299117#1 -88559661#2 -88559661#0"/>
            <route replacedOnEdge="-225518512#1" replacedOnIndex="17" reason="traci:setRoute" replacedAtTime="18406.00" probability="0" edges="31129765 123741465 8915117 8915115#0 8915115#1 254299118#0 254299118#1 254299118#2 254299118#3 254308548#0 254308548#2 186400365 143666207#0 254299117#0 254299117#1 -88559661#2 -88559661#0 -225518512#1"/>
            <route replacedOnEdge="-225518512#1" replacedOnIndex="17" reason="traci:changeTarget" replacedAtTime="18416.00" probability="0" edges="31129765 123741465 8915117 8915115#0 8915115#1 254299118#0 254299118#1 254299118#2 254299118#3 254308548#0 254308548#2 186400365 143666207#0 254299117#0 254299117#1 -88559661#2 -88559661#0 -225518512#1 225518512#0"/>
            <route edges="31129765 123741465 8915117 8915115#0 8915115#1 254299118#0 254299118#1 254299118#2 254299118#3 254308548#0 254308548#2 186400365 143666207#0 254299117#0 254299117#1 -88559661#2 -88559661#0 -225518512#1 225518512#0 88559702#0 88559702#1 88559702#2 25758528#0 25758528#1 8915151 31129732#1 31129732#2 254299122 154966358 gneE27 31129765"/>
        </routeDistribution>
        <stop parkingArea="parkingArea_-225518512#1_0_517" duration="20.00" parking="1"/>
    </vehicle>

    <vehicle id="33" type="vecType" depart="18000.00" arrival="18781.00">
        <routeDistribution>
            <route replacedOnEdge="224316522#0" replacedOnIndex="15" reason="traci:changeTarget" replacedAtTime="18371.00" probability="0" edges="144489137#0 144489137#1 144489137#2 144489137#3 144489137#7 254758131#0 254758131#2 254758132#0 254758132#2 290052332#1 290052332#4 -144489136 -204884397 88597544#0 88597544#2 224316522#0"/>
            <route edges="144489137#0 144489137#1 144489137#2 144489137#3 144489137#7 254758131#0 254758131#2 254758132#0 254758132#2 290052332#1 290052332#4 -144489136 -204884397 88597544#0 88597544#2 224316522#0 133733590#0 204884387#0 144489134#0 144489134#2 144489134#3 290080809#0 290080809#4 84734271#1 84734271#2 84734271#3 84734271#5 84734271#6 84734271#7 91181767 gneE12 144489137#0"/>
        </routeDistribution>
        <stop parkingArea="parkingArea_224316522#0_0_572" duration="20.00" parking="1"/>
    </vehicle>

    <vehicle id="27" type="vecType" depart="18000.00" arrival="18794.00">
        <routeDistribution>
            <route replacedOnEdge="179235223" replacedOnIndex="28" reason="traci:changeTarget" replacedAtTime="18341.00" probability="0" edges="-8916048 111089307#4 -27029200#1 -25758513 27029265#3 186400366#0 186400366#1 186400366#2 186400366#5 186400366#6 186400366#7 186400366#8 186400366#9 186400366#12 186400366#13 254299118#0 254299118#1 254299118#2 254299118#3 254308548#0 254308548#2 186400365 143666207#0 254299117#0 254299117#1 88559650 26944075#0 26944075#1 179235223"/>
            <route edges="-8916048 111089307#4 -27029200#1 -25758513 27029265#3 186400366#0 186400366#1 186400366#2 186400366#5 186400366#6 186400366#7 186400366#8 186400366#9 186400366#12 186400366#13 254299118#0 254299118#1 254299118#2 254299118#3 254308548#0 254308548#2 186400365 143666207#0 254299117#0 254299117#1 88559650 26944075#0 26944075#1 179235223 175129396#0 -99231466 99231468#0 35675861#0 35675861#1 283537552#0 283537552#1 283537644#0 283537644#2 88559702#0 88559702#1 88559702#2 25758528#0 25758528#1 8915151 31129732#1 26779355 8915704#0 8915704#1 254299121#6 254299121#8 254299121#9 25758513 27029200#0 -111089307#4 8916048 -8916048"/>
        </routeDistribution>
        <stop parkingArea="parkingArea_135110258#0_0_410" duration="20.00" parking="1"/>
    </vehicle>

    <vehicle id="21" type="vecType" depart="18000.00" arrival="18824.00">
        <routeDistribution>
            <route replacedOnEdge="-35675861#1" replacedOnIndex="20" reason="traci:setRoute" replacedAtTime="18282.00" probability="0" edges="27167762 123741465 8915117 8915115#0 8915115#1 254299118#0 254299118#1 254299118#2 254299118#3 254308548#0 254308548#2 186400365 143666207#0 254299117#0 254299117#1 -88559661#2 28842183 -283537644#1 -283537552#1 -283537552#0 -35675861#1 35675861#1"/>
            <route replacedOnEdge="-35675861#1" replacedOnIndex="20" reason="traci:setRoute" replacedAtTime="18283.00" probability="0" edges="27167762 123741465 8915117 8915115#0 8915115#1 254299118#0 254299118#1 254299118#2 254299118#3 254308548#0 254308548#2 186400365 143666207#0 254299117#0 254299117#1 -88559661#2 28842183 -283537644#1 -283537552#1 -283537552#0 -35675861#1 35675861#1 -35675861#1"/>
            <route replacedOnEdge="-35675861#1" replacedOnIndex="20" reason="traci:setRoute" replacedAtTime="18284.00" probability="0" edges="27167762 123741465 8915117 8915115#0 8915115#1 254299118#0 254299118#1 254299118#2 254299118#3 254308548#0 254308548#2 186400365 143666207#0 254299117#0 254299117#1 -88559661#2 28842183 -283537644#1 -283537552#1 -283537552#0 -35675861#1 35675861#1 -35675861#1 -35675861#0"/>
            <route replacedOnEdge="-35675861#0" replacedOnIndex="23" reason="traci:setRoute" replacedAtTime="18384.00" probability="0" edges="27167762 123741465 8915117 8915115#0 8915115#1 254299118#0 254299118#1 254299118#2 254299118#3 254308548#0 254308548#2 186400365 143666207#0 254299117#0 254299117#1 -88559661#2 28842183 -283537644#1 -283537552#1 -283537552#0 -35675861#1 35675861#1 -35675861#1 -35675861#0 -35675862"/>
            <route replacedOnEdge="99231466" replacedOnIndex="25" reason="traci:changeTarget" replacedAtTime="18459.00" probability="0" edges="27167762 123741465 8915117 8915115#0 8915115#1 254299118#0 254299118#1 254299118#2 254299118#3 254308548#0 254308548#2 186400365 143666207#0 254299117#0 254299117#1 -88559661#2 28842183 -283537644#1 -283537552#1 -283537552#0 -35675861#1 35675861#1 -35675861#1 -35675861#0 -35675862 99231466"/>
            <route edges="27167762 123741465 8915117 8915115#0 8915115#1 254299118#0 254299118#1 254299118#2 254299118#3 254308548#0 254308548#2 186400365 143666207#0 254299117#0 254299117#1 -88559661#2 28842183 -283537644#1 -283537552#1 -283537552#0 -35675861#1 35675861#1 -35675861#1 -35675861#0 -35675862 99231466 -99231466 99231468#0 35675861#0 35675861#1 283537552#0 283537552#1 283537644#0 283537644#2 88559702#0 88559702#1 88559702#2 25758528#0 25758528#1 8915151 31129732#1 31129732#2 254299122 8915263 gneE20 27167762"/>
        </routeDistribution>
        <stop parkingArea="parkingArea_99231466_0_391" duration="20.00" parking="1"/>
    </vehicle>

    <vehicle id="13" type="vecType" depart="18003.00" arrival="18835.00">
        <routeDistribution>
            <route replacedOnEdge="91181771#5" replacedOnIndex="11" reason="traci:changeTarget" replacedAtTime="18374.00" probability="0" edges="90077241 8921938 110361656 111319423 27397919 179235243#1 364480068#1 47172745 91181771#0 91181771#3 91181771#4 91181771#5"/>
            <route edges="90077241 8921938 110361656 111319423 27397919 179235243#1 364480068#1 47172745 91181771#0 91181771#3 91181771#4 91181771#5 254299142#11 -88572965#1 -88572965#0 -88559669 88559691#0 88559691#4 225518502#0 329607867 27772070 202317709 50690291#0 50690291#1 gneE4 90077241"/>
        </routeDistribution>
        <stop parkingArea="parkingArea_91181771#5_0_513" duration="20.00" parking="1"/>
    </vehicle>

    <vehicle id="2" type="vecType" depart="18000.00" arrival="18847.00">
        <routeDistribution>
            <route replacedOnEdge="225518502#3" replacedOnIndex="30" reason="traci:setRoute" replacedAtTime="18440.00" probability="0" edges="142972028#1 89624695#0 89624695#2 89624695#3 27029264#0 27029264#1 27029264#2 27029265#0 25657409#2 25657409#3 25657409#4 25657409#5 25657409#7 25657409#9 25657409#10 25657409#11 25657409#12 25657409#13 25657409#14 25657409#15 25657409#16 25657409#17 25657409#18 25657409#19 255168047#0 255168047#3 255168046#0 255168046#2 225518502#0 225518502#2 225518502#3 283537380#0"/>
            <route replacedOnEdge="8919338" replacedOnIndex="32" reason="traci:changeTarget" replacedAtTime="18468.00" probability="0" edges="142972028#1 89624695#0 89624695#2 89624695#3 27029264#0 27029264#1 27029264#2 27029265#0 25657409#2 25657409#3 25657409#4 25657409#5 25657409#7 25657409#9 25657409#10 25657409#11 25657409#12 25657409#13 25657409#14 25657409#15 25657409#16 25657409#17 25657409#18 25657409#19 255168047#0 255168047#3 255168046#0 255168046#2 225518502#0 225518502#2 225518502#3 283537380#0 8919338"/>
            <route edges="142972028#1 89624695#0 89624695#2 89624695#3 27029264#0 27029264#1 27029264#2 27029265#0 25657409#2 25657409#3 25657409#4 25657409#5 25657409#7 25657409#9 25657409#10 25657409#11 25657409#12 25657409#13 25657409#14 25657409#15 25657409#16 25657409#17 25657409#18 25657409#19 255168047#0 255168047#3 255168046#0 255168046#2 225518502#0 225518502#2 225518502#3 283537380#0 8919338 8915752 283537380#2 283537552#0 283537552#1 283537644#0 283537644#2 88559702#0 88559702#1 88559702#2 25758528#0 25758528#1 8915151 31129732#1 26779355 8915704#0 8915704#1 254299121#6 256787755#2 256787755#3 256787755#5 91181769#0 88572943#0 88572943#1 26988051 225847519#1 225847519#4 gneE14 142972028#1"/>
        </routeDistribution>
        <stop parkingArea="parkingArea_8919338_0_468" duration="20.00" parking="1"/>
    </vehicle>

    <vehicle id="40" type="vecType" depart="18000.00" arrival="18863.00">
        <routeDistribution>
            <route replacedOnEdge="290052332#4" replacedOnIndex="27" reason="traci:setRoute" replacedAtTime="18309.00" probability="0" edges="-206679802#4 87297164#6 87297164#7 87297164#8 26938417 26938418#0 26938418#1 26938418#2 -24335483#8 -24335483#6 -24335483#5 -27166421#8 -27166421#7 -27166421#6 -27166421#5 27398045#7 8919058 8916882#0 -91181760#0 -100400946 -100400944 -286003243#1 -84654238#5 -84654238#3 -84654238#2 -290052331 290052332#1 290052332#4 -144489136"/>
            <route replacedOnEdge="-144489136" replacedOnIndex="28" reason="traci:setRoute" replacedAtTime="18311.00" probability="0" edges="-206679802#4 87297164#6 87297164#7 87297164#8 26938417 26938418#0 26938418#1 26938418#2 -24335483#8 -24335483#6 -24335483#5 -27166421#8 -27166421#7 -27166421#6 -27166421#5 27398045#7 8919058 8916882#0 -91181760#0 -100400946 -100400944 -286003243#1 -84654238#5 -84654238#3 -84654238#2 -290052331 290052332#1 290052332#4 -144489136 228201785#0"/>
            <route replacedOnEdge="228201785#0" replacedOnIndex="29" reason="traci:setRoute" replacedAtTime="18322.00" probability="0" edges="-206679802#4 87297164#6 87297164#7 87297164#8 26938417 26938418#0 26938418#1 26938418#2 -24335483#8 -24335483#6 -24335483#5 -27166421#8 -27166421#7 -27166421#6 -27166421#5 27398045#7 8919058 8916882#0 -91181760#0 -100400946 -100400944 -286003243#1 -84654238#5 -84654238#3 -84654238#2 -290052331 290052332#1 290052332#4 -144489136 228201785#0 228201785#1"/>
            <route replacedOnEdge="228201785#1" replacedOnIndex="30" reason="traci:setRoute" replacedAtTime="18331.00" probability="0" edges="-206679802#4 87297164#6 87297164#7 87297164#8 26938417 26938418#0 26938418#1 26938418#2 -24335483#8 -24335483#6 -24335483#5 -27166421#8 -27166421#7 -27166421#6 -27166421#5 27398045#7 8919058 8916882#0 -91181760#0 -100400946 -100400944 -286003243#1 -84654238#5 -84654238#3 -84654238#2 -290052331 290052332#1 290052332#4 -144489136 228201785#0 228201785#1 225806043"/>
            <route replacedOnEdge="225806043" replacedOnIndex="31" reason="traci:setRoute" replacedAtTime="18386.00" probability="0" edges="-206679802#4 87297164#6 87297164#7 87297164#8 26938417 26938418#0 26938418#1 26938418#2 -24335483#8 -24335483#6 -24335483#5 -27166421#8 -27166421#7 -27166421#6 -27166421#5 27398045#7 8919058 8916882#0 -91181760#0 -100400946 -100400944 -286003243#1 -84654238#5 -84654238#3 -84654238#2 -290052331 290052332#1 290052332#4 -144489136 228201785#0 228201785#1 225806043 225806042#0"/>
            <route replacedOnEdge="225806042#0" replacedOnIndex="32" reason="traci:setRoute" replacedAtTime="18395.00" probability="0" edges="-206679802#4 87297164#6 87297164#7 87297164#8 26938417 26938418#0 26938418#1 26938418#2 -24335483#8 -24335483#6 -24335483#5 -27166421#8 -27166421#7 -27166421#6 -27166421#5 27398045#7 8919058 8916882#0 -91181760#0 -100400946 -100400944 -286003243#1 -84654238#5 -84654238#3 -84654238#2 -290052331 290052332#1 290052332#4 -144489136 228201785#0 228201785#1 225806043 225806042#0 8922164#0"/>
            <route replacedOnEdge="8922164#1" replacedOnIndex="34" reason="traci:changeTarget" replacedAtTime="18409.00" probability="0" edges="-206679802#4 87297164#6 87297164#7 87297164#8 26938417 26938418#0 26938418#1 26938418#2 -24335483#8 -24335483#6 -24335483#5 -27166421#8 -27166421#7 -27166421#6 -27166421#5 27398045#7 8919058 8916882#0 -91181760#0 -100400946 -100400944 -286003243#1 -84654238#5 -84654238#3 -84654238#2 -290052331 290052332#1 290052332#4 -144489136 228201785#0 228201785#1 225806043 225806042#0 8922164#0 8922164#1"/>
            <route edges="-206679802#4 87297164#6 87297164#7 87297164#8 26938417 26938418#0 26938418#1 26938418#2 -24335483#8 -24335483#6 -24335483#5 -27166421#8 -27166421#7 -27166421#6 -27166421#5 27398045#7 8919058 8916882#0 -91181760#0 -100400946 -100400944 -286003243#1 -84654238#5 -84654238#3 -84654238#2 -290052331 290052332#1 290052332#4 -144489136 228201785#0 228201785#1 225806043 225806042#0 8922164#0 8922164#1 26938124#2 26938124#3 26938124#4 26938124#5 26938124#6 26938124#9 26938124#12 26938124#13 27397539#0 27166421#1 27166421#3 27166421#5 27166421#6 27166421#7 27166421#8 24335483#4 -288065247#0 8920093#1 254758127#0 72981813#3 26938338#0 -87297164#7 -87297164#6 206679802#4 -206679802#4"/>
        </routeDistribution>
        <stop parkingArea="parkingArea_8922164#1_0_320" duration="20.00" parking="1"/>
    </vehicle>

    <vehicle id="47" type="vecType" depart="18060.00" arrival="18867.00">
        <routeDistribution>
            <route replacedOnEdge="-225432462#1" replacedOnIndex="7" reason="traci:setRoute" replacedAtTime="18290.00" probability="0" edges="90077241 8921938 110361656 111319423 27397919 179235243#1 364480068#1 -225432462#1 225432462#0"/>
            <route replacedOnEdge="-225432462#1" replacedOnIndex="7" reason="traci:setRoute" replacedAtTime="18291.00" probability="0" edges="90077241 8921938 110361656 111319423 27397919 179235243#1 364480068#1 -225432462#1 225432462#0 -225432462#1"/>
            <route replacedOnEdge="-225432462#1" replacedOnIndex="9" reason="traci:setRoute" replacedAtTime="18314.00" probability="0" edges="90077241 8921938 110361656 111319423 27397919 179235243#1 364480068#1 -225432462#1 225432462#0 -225432462#1 -99231475"/>
            <route replacedOnEdge="99231463#0" replacedOnIndex="13" reason="traci:changeTarget" replacedAtTime="18394.00" probability="0" edges="90077241 8921938 110361656 111319423 27397919 179235243#1 364480068#1 -225432462#1 225432462#0 -225432462#1 225432462#0 -225432462#1 -99231475 99231463#0"/>
            <route edges="90077241 8921938 110361656 111319423 27397919 179235243#1 364480068#1 -225432462#1 225432462#0 -225432462#1 225432462#0 -225432462#1 -99231475 99231463#0 111560682 256400244#0 225432457 -99231486 364480601#0 283537380#0 283537380#1 283537380#2 8915351 50690291#0 50690291#1 gneE4 90077241"/>
        </routeDistribution>
        <stop parkingArea="parkingArea_99231463#0_0_394" duration="20.00" parking="1"/>
    </vehicle>

    <vehicle id="0" type="vecType" depart="18000.00" arrival="18885.00">
        <routeDistribution>
            <route replacedOnEdge="-26988030#2" replacedOnIndex="20" reason="traci:setRoute" replacedAtTime="18270.00" probability="0" edges="84823308 157812260#0 157812260#3 157812260#4 157812260#5 157812260#6 157812260#7 157812260#8 157812260#9 157812260#10 157812260#11 88572922#0 35973460#1 263855294#0 263855294#3 27167270#0 27167270#1 27167270#2 -26988030#4 -26988030#3 -26988030#2 -33789567"/>
            <route replacedOnEdge="-33789567" replacedOnIndex="21" reason="traci:setRoute" replacedAtTime="18274.00" probability="0" edges="84823308 157812260#0 157812260#3 157812260#4 157812260#5 157812260#6 157812260#7 157812260#8 157812260#9 157812260#10 157812260#11 88572922#0 35973460#1 263855294#0 263855294#3 27167270#0 27167270#1 27167270#2 -26988030#4 -26988030#3 -26988030#2 -33789567 33789581#0"/>
            <route replacedOnEdge="33789581#0" replacedOnIndex="22" reason="traci:setRoute" replacedAtTime="18283.00" probability="0" edges="84823308 157812260#0 157812260#3 157812260#4 157812260#5 157812260#6 157812260#7 157812260#8 157812260#9 157812260#10 157812260#11 88572922#0 35973460#1 263855294#0 263855294#3 27167270#0 27167270#1 27167270#2 -26988030#4 -26988030#3 -26988030#2 -33789567 33789581#0 -8915763"/>