<?xml version="1.0" encoding="UTF-8"?>

<!-- generated on 2023-01-09 09:23:04 by Eclipse SUMO sumo Version 1.14.1
<configuration xmlns:xsi="http://www.w3.org/2001/XMLSchema-instance" xsi:noNamespaceSchemaLocation="http://sumo.dlr.de/xsd/sumoConfiguration.xsd">

    <input>
        <net-file value="./strategia1_config/../san_francisco.net.xml"/>
        <route-files value="./strategia1_config/../san_francisco.rou.xml"/>
        <additional-files value="./strategia1_config/../san_francisco.poly.xml,./strategia1_config/../parking_capacity_100%25/off_parking_100%25.add.xml,./strategia1_config/../parking_capacity_100%25/on_parking_100%25.add.xml"/>
    </input>

    <output>
        <emission-output value="./strategia1_config/../output/strategia1/100%25/emissions.xml"/>
        <tripinfo-output value="./strategia1_config/../output/strategia1/100%25/tripinfo.xml"/>
        <vehroute-output value="./strategia1_config/../output/strategia1/100%25/vehroute.xml"/>
        <stop-output value="./strategia1_config/../output/strategia1/100%25/stops.xml"/>
        <collision-output value="./strategia1_config/../output/strategia1/100%25/collision.xml"/>
        <statistic-output value="./strategia1_config/../output/strategia1/100%25/statistic.xml"/>
    </output>

    <time>
        <step-length value="1"/>
    </time>

    <processing>
        <ignore-route-errors value="false"/>
    </processing>

    <report>
        <verbose value="true"/>
        <xml-validation value="never"/>
    </report>

    <traci_server>
        <remote-port value="54120"/>
    </traci_server>

    <gui_only>
        <gui-settings-file value="./strategia1_config/../gui-settings.cfg"/>
        <start value="true"/>
    </gui_only>

</configuration>
-->

<routes xmlns:xsi="http://www.w3.org/2001/XMLSchema-instance" xsi:noNamespaceSchemaLocation="http://sumo.dlr.de/xsd/routes_file.xsd">
    <vehicle id="116" type="vecType" depart="18240.00" arrival="18835.00">
        <route edges="48211196#5 -48211196#6 30029878#5 30029878#6 30029878#7 30029878#8 30029878#10 30029878#11 30029878#12 30029878#13 30029878#14 30029878#15 288065247#0 -24335483#5 -27166421#8 -27166421#7 -27166421#6 -27166421#5 27398045#7 8919058 8916882#0 -91181760#0 27166466#0 27166466#2 27166466#3 254297761#0 254297761#2 254297761#4 254758128#0 254758128#1 254448247#0 -85789165 85789166#0 88572895#0 214545530#0 214545530#3 214545530#4 214545530#7 143617593 254758139#0 254758139#1 162931811#0 -7373736#0 7373728 -133755923#0 -28518571#1 -28518571#0 -8916792"/>
    </vehicle>

    <vehicle id="64" type="vecType" depart="18060.00" arrival="18871.00">
        <routeDistribution>
            <route replacedOnEdge="50690291#0" replacedOnIndex="16" reason="traci:changeTarget" replacedAtTime="18337.00" probability="0" edges="28319343#2 28319343#3 24245406 224199013#0 224199013#1 224199013#2 224373753 88597563#0 256400244#0 225432457 -99231486 364480601#0 283537380#0 283537380#1 283537380#2 8915351 50690291#0 50690291#1"/>
            <route edges="28319343#2 28319343#3 24245406 224199013#0 224199013#1 224199013#2 224373753 88597563#0 256400244#0 225432457 -99231486 364480601#0 283537380#0 283537380#1 283537380#2 8915351 50690291#0 50690291#1 gneE4 90077241 8921938 120813417 31129372 -35675861#0 -35675862 27397692 8918460#0 99231463#0 224373751 28319343#0 28319343#1 28319343#2"/>
        </routeDistribution>
    </vehicle>

    <vehicle id="71" type="vecType" depart="18120.00" arrival="19059.00">
        <routeDistribution>
            <route replacedOnEdge="175354957#1" replacedOnIndex="14" reason="traci:changeTarget" replacedAtTime="18403.00" probability="0" edges="52432938#0 52432938#1 255351721#0 -27656675 26943623 133735130#0 255330036#7 -8919615#1 -8919615#0 8916553#1 -8916551 -88559680#2 88559650 175354957#0 175354957#1 50690291#1"/>
            <route edges="52432938#0 52432938#1 255351721#0 -27656675 26943623 133735130#0 255330036#7 -8919615#1 -8919615#0 8916553#1 -8916551 -88559680#2 88559650 175354957#0 175354957#1 50690291#1 gneE4 90077241 8921938 120813417 202485364 8915062 143617593 254758139#0 254758139#1 162931811#0 162931811#1 143617587 26943653#0 52432939 255330070#0 255330070#3 52432938#0"/>
        </routeDistribution>
    </vehicle>

    <vehicle id="94" type="vecType" depart="18120.00" arrival="19248.00">
        <routeDistribution>
            <route replacedOnEdge="50690291#0" replacedOnIndex="19" reason="traci:changeTarget" replacedAtTime="18607.00" probability="0" edges="254758124#0 254758124#1 86303763#6 86303763#10 86303763#11 86303763#14 86303763#17 111586257 28841123#0 224316522#0 133733590#0 -224384019#1 88597577#0 88559691#0 88559691#4 225518502#0 329607867 27772070 202317709 50690291#0 50690291#1"/>
            <route edges="254758124#0 254758124#1 86303763#6 86303763#10 86303763#11 86303763#14 86303763#17 111586257 28841123#0 224316522#0 133733590#0 -224384019#1 88597577#0 88559691#0 88559691#4 225518502#0 329607867 27772070 202317709 50690291#0 50690291#1 gneE4 90077241 8921938 120813417 202485364 8915062 -214545530#7 -214545530#6 -214545530#3 -214545530#2 -88572895#2 -88572895#0 -85789166#3 85789165 30832507#0 30832507#1 27400639#0 27400639#1 26938124#4 26938124#5 26938124#6 26938124#9 26938124#12 26938124#13 100400947#4 27166444 254758124#0"/>
        </routeDistribution>
    </vehicle>

    <vehicle id="228" type="vecType" depart="19080.00" arrival="19391.00">
        <route edges="144489137#3 254758126#1 254758126#2 254758126#3 254758126#4 254758126#5 254758126#6 25372932#0 25372932#1 254756525#23 254756525#25 254756525#26"/>
    </vehicle>

    <vehicle id="241" type="vecType" depart="19440.00" arrival="19566.00">
        <route edges="288065247#6 -288065247#6 254756525#20 254756525#23 254756525#25 254756525#26"/>
    </vehicle>

    <vehicle id="177" type="vecType" depart="18600.00" arrival="19749.00">
        <routeDistribution>
            <route replacedOnEdge="50690291#0" replacedOnIndex="33" reason="traci:changeTarget" replacedAtTime="18991.00" probability="0" edges="-30029708#0 30030100#0 30030100#2 148846995 148846996#0 148846996#1 148846996#2 -48211487#2 -48211487#1 -48211487#0 48211960 87376672#0 87376672#1 -91185877#1 -91185877#0 -254971056#1 -8922640#1 27054205#0 27054205#1 27054209#0 -254756526#1 -254396719#1 -254466686#4 27054213#4 27054213#6 91181774#0 8919020#0 88572905 91181770#0 283537380#0 283537380#1 283537380#2 8915351 50690291#0 50690291#1"/>
            <route edges="-30029708#0 30030100#0 30030100#2 148846995 148846996#0 148846996#1 148846996#2 -48211487#2 -48211487#1 -48211487#0 48211960 87376672#0 87376672#1 -91185877#1 -91185877#0 -254971056#1 -8922640#1 27054205#0 27054205#1 27054209#0 -254756526#1 -254396719#1 -254466686#4 27054213#4 27054213#6 91181774#0 8919020#0 88572905 91181770#0 283537380#0 283537380#1 283537380#2 8915351 50690291#0 50690291#1 gneE4 90077241 8921938 120813417 31129372 8922307 364480069 364480068#0 364480068#1 364480068#2 88572881#0 88572881#3 88597575#0 88597575#1 254466686#2 254466686#3 254466686#4 254396719#0 254756526#0 254971069#0 27054195#0 8922640#0 254971056#0 91185877#0 91185877#1 30030101#0 30030101#1 87376669 48211487#0 48211487#1 48211487#2 48211828 254756518 148874363#0 148874364#0 148874364#1 148874364#3 30029708#0 -30029708#0"/>
        </routeDistribution>
    </vehicle>

    <vehicle id="16" type="vecType" depart="18006.00" arrival="19769.00">
        <routeDistribution>
            <route replacedOnEdge="283537644#2" replacedOnIndex="8" reason="traci:setRoute" replacedAtTime="18229.00" probability="0" edges="90077241 8921938 120813417 31129372 35675861#1 283537552#0 283537552#1 283537644#0 283537644#2 -225518512#1"/>
            <route replacedOnEdge="-225518512#1" replacedOnIndex="9" reason="traci:changeTarget" replacedAtTime="18280.00" probability="0" edges="90077241 8921938 120813417 31129372 35675861#1 283537552#0 283537552#1 283537644#0 283537644#2 -225518512#1 225518502#0"/>
            <route edges="90077241 8921938 120813417 31129372 35675861#1 283537552#0 283537552#1 283537644#0 283537644#2 -225518512#1 225518502#0 329607867 27772070 202317709 50690291#0 50690291#1 gneE4 90077241"/>
        </routeDistribution>
        <stop parkingArea="parkingArea_-225518512#1_0_517" duration="1105.00" parking="1"/>
    </vehicle>

    <vehicle id="2" type="vecType" depart="18000.00" arrival="19938.00">
        <routeDistribution>
            <route replacedOnEdge="225518502#3" replacedOnIndex="30" reason="traci:setRoute" replacedAtTime="18456.00" probability="0" edges="142972028#1 89624695#0 89624695#2 89624695#3 27029264#0 27029264#1 27029264#2 27029265#0 25657409#2 25657409#3 25657409#4 25657409#5 25657409#7 25657409#9 25657409#10 25657409#11 25657409#12 25657409#13 25657409#14 25657409#15 25657409#16 25657409#17 25657409#18 25657409#19 255168047#0 255168047#3 255168046#0 255168046#2 225518502#0 225518502#2 225518502#3 283537380#0"/>
            <route replacedOnEdge="8919338" replacedOnIndex="32" reason="traci:setRoute" replacedAtTime="18464.00" probability="0" edges="142972028#1 89624695#0 89624695#2 89624695#3 27029264#0 27029264#1 27029264#2 27029265#0 25657409#2 25657409#3 25657409#4 25657409#5 25657409#7 25657409#9 25657409#10 25657409#11 25657409#12 25657409#13 25657409#14 25657409#15 25657409#16 25657409#17 25657409#18 25657409#19 255168047#0 255168047#3 255168046#0 255168046#2 225518502#0 225518502#2 225518502#3 283537380#0 8919338"/>
            <route replacedOnEdge="8919338" replacedOnIndex="32" reason="traci:changeTarget" replacedAtTime="18473.00" probability="0" edges="142972028#1 89624695#0 89624695#2 89624695#3 27029264#0 27029264#1 27029264#2 27029265#0 25657409#2 25657409#3 25657409#4 25657409#5 25657409#7 25657409#9 25657409#10 25657409#11 25657409#12 25657409#13 25657409#14 25657409#15 25657409#16 25657409#17 25657409#18 25657409#19 255168047#0 255168047#3 255168046#0 255168046#2 225518502#0 225518502#2 225518502#3 283537380#0 8919338 8915752"/>
            <route edges="142972028#1 89624695#0 89624695#2 89624695#3 27029264#0 27029264#1 27029264#2 27029265#0 25657409#2 25657409#3 25657409#4 25657409#5 25657409#7 25657409#9 25657409#10 25657409#11 25657409#12 25657409#13 25657409#14 25657409#15 25657409#16 25657409#17 25657409#18 25657409#19 255168047#0 255168047#3 255168046#0 255168046#2 225518502#0 225518502#2 225518502#3 283537380#0 8919338 8915752 283537380#2 283537552#0 283537552#1 283537644#0 283537644#2 88559702#0 88559702#1 88559702#2 25758528#0 25758528#1 8915151 31129732#1 26779355 8915704#0 8915704#1 254299121#6 256787755#2 256787755#3 256787755#5 91181769#0 88572943#0 88572943#1 26988051 225847519#1 225847519#4 gneE14 142972028#1"/>
        </routeDistribution>
        <stop parkingArea="parkingArea_8919338_0_468" duration="1102.00" parking="1"/>
    </vehicle>

    <vehicle id="229" type="vecType" depart="19140.00" arrival="20056.00">
        <routeDistribution>
            <route replacedOnEdge="254308553" replacedOnIndex="38" reason="traci:setRoute" replacedAtTime="19848.00" probability="0" edges="148847001#0 -148847001#1 -148847000#5 -148847000#4 -148847000#3 148847005#0 148874366 254756527 -24335487#2 -24335487#1 -24335487#0 -24335486#2 -24335486#1 -30035647#1 -91182067 -91182068 -100400942#1 -100400942#0 100400946 27166466#0 27166466#2 27166466#3 254297761#0 254297761#2 254297761#4 254758128#0 254758128#1 254448247#0 -85789165 85789166#0 88572895#0 91181771#16 264874017#0 264874017#3 264874017#4 264874017#5 254305050#0 254305050#1 254308553 8918874"/>
            <route replacedOnEdge="8918874" replacedOnIndex="39" reason="traci:setRoute" replacedAtTime="19908.00" probability="0" edges="148847001#0 -148847001#1 -148847000#5 -148847000#4 -148847000#3 148847005#0 148874366 254756527 -24335487#2 -24335487#1 -24335487#0 -24335486#2 -24335486#1 -30035647#1 -91182067 -91182068 -100400942#1 -100400942#0 100400946 27166466#0 27166466#2 27166466#3 254297761#0 254297761#2 254297761#4 254758128#0 254758128#1 254448247#0 -85789165 85789166#0 88572895#0 91181771#16 264874017#0 264874017#3 264874017#4 264874017#5 254305050#0 254305050#1 254308553 8918874 gneE21"/>
            <route replacedOnEdge="gneE21" replacedOnIndex="40" reason="traci:setRoute" replacedAtTime="19917.00" probability="0" edges="148847001#0 -148847001#1 -148847000#5 -148847000#4 -148847000#3 148847005#0 148874366 254756527 -24335487#2 -24335487#1 -24335487#0 -24335486#2 -24335486#1 -30035647#1 -91182067 -91182068 -100400942#1 -100400942#0 100400946 27166466#0 27166466#2 27166466#3 254297761#0 254297761#2 254297761#4 254758128#0 254758128#1 254448247#0 -85789165 85789166#0 88572895#0 91181771#16 264874017#0 264874017#3 264874017#4 264874017#5 254305050#0 254305050#1 254308553 8918874 gneE21 123867455"/>
            <route replacedOnEdge="123867455" replacedOnIndex="41" reason="traci:setRoute" replacedAtTime="19958.00" probability="0" edges="148847001#0 -148847001#1 -148847000#5 -148847000#4 -148847000#3 148847005#0 148874366 254756527 -24335487#2 -24335487#1 -24335487#0 -24335486#2 -24335486#1 -30035647#1 -91182067 -91182068 -100400942#1 -100400942#0 100400946 27166466#0 27166466#2 27166466#3 254297761#0 254297761#2 254297761#4 254758128#0 254758128#1 254448247#0 -85789165 85789166#0 88572895#0 91181771#16 264874017#0 264874017#3 264874017#4 264874017#5 254305050#0 254305050#1 254308553 8918874 gneE21 123867455 8920391#0"/>
            <route replacedOnEdge="8920391#0" replacedOnIndex="42" reason="traci:setRoute" replacedAtTime="19990.00" probability="0" edges="148847001#0 -148847001#1 -148847000#5 -148847000#4 -148847000#3 148847005#0 148874366 254756527 -24335487#2 -24335487#1 -24335487#0 -24335486#2 -24335486#1 -30035647#1 -91182067 -91182068 -100400942#1 -100400942#0 100400946 27166466#0 27166466#2 27166466#3 254297761#0 254297761#2 254297761#4 254758128#0 254758128#1 254448247#0 -85789165 85789166#0 88572895#0 91181771#16 264874017#0 264874017#3 264874017#4 264874017#5 254305050#0 254305050#1 254308553 8918874 gneE21 123867455 8920391#0 255330070#0"/>
            <route replacedOnEdge="255330070#0" replacedOnIndex="43" reason="traci:setRoute" replacedAtTime="19998.00" probability="0" edges="148847001#0 -148847001#1 -148847000#5 -148847000#4 -148847000#3 148847005#0 148874366 254756527 -24335487#2 -24335487#1 -24335487#0 -24335486#2 -24335486#1 -30035647#1 -91182067 -91182068 -100400942#1 -100400942#0 100400946 27166466#0 27166466#2 27166466#3 254297761#0 254297761#2 254297761#4 254758128#0 254758128#1 254448247#0 -85789165 85789166#0 88572895#0 91181771#16 264874017#0 264874017#3 264874017#4 264874017#5 254305050#0 254305050#1 254308553 8918874 gneE21 123867455 8920391#0 255330070#0 255330070#3"/>
            <route edges="148847001#0 -148847001#1 -148847000#5 -148847000#4 -148847000#3 148847005#0 148874366 254756527 -24335487#2 -24335487#1 -24335487#0 -24335486#2 -24335486#1 -30035647#1 -91182067 -91182068 -100400942#1 -100400942#0 100400946 27166466#0 27166466#2 27166466#3 254297761#0 254297761#2 254297761#4 254758128#0 254758128#1 254448247#0 -85789165 85789166#0 88572895#0 91181771#16 264874017#0 264874017#3 264874017#4 264874017#5 254305050#0 254305050#1 254308553 8918874 gneE21 123867455 8920391#0 255330070#0 255330070#3 52432936#0"/>
        </routeDistribution>
    </vehicle>

    <vehicle id="243" type="vecType" depart="19440.00" arrival="20173.00">
        <route edges="-48211196#4 -48211196#2 48211195#1 30030100#2 148846995 148846996#0 148846996#1 148846996#2 -48211487#2 -48211487#1 -48211487#0 48211960 87376672#0 87376672#1 -91185877#1 -91185877#0 -254971056#1 -8922640#1 27054205#0 27054205#1 8916867#0 8916867#2 287958607#0 287958607#2 287958607#3 287958607#4 133733590#0 -224384019#1 88597577#0 88559691#0 88559691#4 225518512#0 88559661#0 88559661#1 88559680#0 88559680#3 88559680#5 224384059#0 8920394#1 27656675 133755930#0 133755930#1"/>
    </vehicle>

    <vehicle id="302" type="vecType" depart="19800.00" arrival="20229.00">
        <routeDistribution>
            <route replacedOnEdge="50690291#0" replacedOnIndex="5" reason="traci:changeTarget" replacedAtTime="19873.00" probability="0" edges="-254758139#0 26779600 123741454#3 123741452 202317709 50690291#0 50690291#1"/>
            <route edges="-254758139#0 26779600 123741454#3 123741452 202317709 50690291#0 50690291#1 gneE4 90077241 8921938 120813417 202485364 8915062 143617593 254758139#0 -254758139#0"/>
        </routeDistribution>
    </vehicle>

    <vehicle id="208" type="vecType" depart="18960.00" arrival="20360.00">
        <routeDistribution>
            <route replacedOnEdge="364480601#1" replacedOnIndex="20" reason="traci:setRoute" replacedAtTime="19517.00" probability="0" edges="-144346316#5 -144346316#4 -144346316#2 -100400941#1 -100400941#0 -91181760#2 -91181760#0 -100400946 -91181759#5 -28841115#2 -28841115#1 286003244#6 286003244#9 224316514#0 254306572#0 224316513#0 91181774#0 8919020#0 88572905 91181770#0 364480601#1 8919403#0"/>
            <route replacedOnEdge="8919403#0" replacedOnIndex="21" reason="traci:setRoute" replacedAtTime="19535.00" probability="0" edges="-144346316#5 -144346316#4 -144346316#2 -100400941#1 -100400941#0 -91181760#2 -91181760#0 -100400946 -91181759#5 -28841115#2 -28841115#1 286003244#6 286003244#9 224316514#0 254306572#0 224316513#0 91181774#0 8919020#0 88572905 91181770#0 364480601#1 8919403#0 27772070"/>
            <route replacedOnEdge="27772070" replacedOnIndex="22" reason="traci:setRoute" replacedAtTime="19582.00" probability="0" edges="-144346316#5 -144346316#4 -144346316#2 -100400941#1 -100400941#0 -91181760#2 -91181760#0 -100400946 -91181759#5 -28841115#2 -28841115#1 286003244#6 286003244#9 224316514#0 254306572#0 224316513#0 91181774#0 8919020#0 88572905 91181770#0 364480601#1 8919403#0 27772070 202317709"/>
            <route replacedOnEdge="202317709" replacedOnIndex="23" reason="traci:setRoute" replacedAtTime="19587.00" probability="0" edges="-144346316#5 -144346316#4 -144346316#2 -100400941#1 -100400941#0 -91181760#2 -91181760#0 -100400946 -91181759#5 -28841115#2 -28841115#1 286003244#6 286003244#9 224316514#0 254306572#0 224316513#0 91181774#0 8919020#0 88572905 91181770#0 364480601#1 8919403#0 27772070 202317709 50690291#0"/>
            <route replacedOnEdge="50690291#0" replacedOnIndex="24" reason="traci:changeTarget" replacedAtTime="19591.00" probability="0" edges="-144346316#5 -144346316#4 -144346316#2 -100400941#1 -100400941#0 -91181760#2 -91181760#0 -100400946 -91181759#5 -28841115#2 -28841115#1 286003244#6 286003244#9 224316514#0 254306572#0 224316513#0 91181774#0 8919020#0 88572905 91181770#0 364480601#1 8919403#0 27772070 202317709 50690291#0 50690291#1"/>
            <route edges="-144346316#5 -144346316#4 -144346316#2 -100400941#1 -100400941#0 -91181760#2 -91181760#0 -100400946 -91181759#5 -28841115#2 -28841115#1 286003244#6 286003244#9 224316514#0 254306572#0 224316513#0 91181774#0 8919020#0 88572905 91181770#0 364480601#1 8919403#0 27772070 202317709 50690291#0 50690291#1 gneE4 90077241 8921938 120813417 202485364 8915062 -214545530#7 -214545530#6 -214545530#3 -214545530#2 -88572895#2 -88572895#0 -85789166#3 85789165 30832507#0 30832507#1 27400639#0 27400639#1 27400639#2 277480564 254758126#0 254758126#1 254758126#2 254758126#3 254758126#4 254758126#5 100400947#7 100400947#9 254759938#3 144346316#5 -144346316#5"/>
        </routeDistribution>
    </vehicle>

    <vehicle id="313" type="vecType" depart="19920.00" arrival="20414.00">
        <route edges="-111089307#4 111089307#4 -27029200#1 -25758513 27029265#3 186400366#0 186400366#1 186400366#2 247960234#1 247966218#0 247966218#3 247966218#4 247966218#5 247966218#6 247966218#7 247966218#8 141688972#0 141688972#1 162931811#0 162931811#1 143617587 26943653#0 52432939 255330070#0 255330070#3 52432936#0"/>
    </vehicle>

    <vehicle id="312" type="vecType" depart="19860.00" arrival="20478.00">
        <route edges="8922307 364480069 364480068#0 364480068#1 364480068#2 88572881#0 88572881#3 88597575#0 88597553#1 88597553#2 254971067#0 254466695#0 254466695#2 254466695#3 329596844#1 28841115#2 91181759#2 100400946 91181760#0 91181760#1 27166421#1 254756525#19 254756525#20 254756525#23 254756525#25 254756525#26"/>
    </vehicle>

    <vehicle id="322" type="vecType" depart="20040.00" arrival="20524.00">
        <route edges="99231460 27398032#0 -43100046 8917778 174822357#0 -255330036#12 -255330036#11 -255330036#10 -255330036#9 -255330036#8 -255330036#7 -255330036#6 -255330036#4 -255330036#3 -255330036#2 -141688972#2 162931811#0 -7373736#0 7373728 -133755923#0 -28518571#1 -28518571#0 -8916792"/>
    </vehicle>

    <vehicle id="318" type="vecType" depart="19980.00" arrival="20531.00">
        <routeDistribution>
            <route replacedOnEdge="50690291#0" replacedOnIndex="10" reason="traci:changeTarget" replacedAtTime="20137.00" probability="0" edges="-88572970 -256400251#1 256400244#0 225432457 -99231486 364480601#0 283537380#0 283537380#1 283537380#2 8915351 50690291#0 50690291#1"/>
            <route edges="-88572970 -256400251#1 256400244#0 225432457 -99231486 364480601#0 283537380#0 283537380#1 283537380#2 8915351 50690291#0 50690291#1 gneE4 90077241 8921938 120813417 31129372 8922307 364480069 364480068#0 364480068#1 364480068#2 88572970 -88572970"/>
        </routeDistribution>
    </vehicle>

    <vehicle id="211" type="vecType" depart="18969.00" arrival="20540.00">
        <routeDistribution>
            <route replacedOnEdge="-225432462#1" replacedOnIndex="7" reason="traci:setRoute" replacedAtTime="19169.00" probability="0" edges="90077241 8921938 110361656 111319423 27397919 179235243#1 364480068#1 -225432462#1 225432462#0"/>
            <route replacedOnEdge="225432462#0" replacedOnIndex="8" reason="traci:changeTarget" replacedAtTime="19180.00" probability="0" edges="90077241 8921938 110361656 111319423 27397919 179235243#1 364480068#1 -225432462#1 225432462#0 47172745"/>
            <route edges="90077241 8921938 110361656 111319423 27397919 179235243#1 364480068#1 -225432462#1 225432462#0 47172745 91181770#0 283537380#0 283537380#1 283537380#2 8915351 50690291#0 50690291#1 gneE4 90077241"/>
        </routeDistribution>
        <stop parkingArea="parkingArea_225432462#0_0_60" duration="1002.00" parking="1"/>
    </vehicle>

    <vehicle id="174" type="vecType" depart="18552.00" arrival="20556.00">
        <routeDistribution>
            <route replacedOnEdge="27146036#1" replacedOnIndex="21" reason="traci:setRoute" replacedAtTime="18914.00" probability="0" edges="90077241 8921938 110361656 111319423 27397919 179235243#1 364480068#1 364480068#2 -256400251#1 -111560682 224373751 28319343#0 28319343#1 28319343#2 28319343#3 254756521#0 254756521#3 254756521#5 254756521#6 32931798#3 27146036#0 27146036#1 -p3#1"/>
            <route replacedOnEdge="27398048#2" replacedOnIndex="23" reason="traci:setRoute" replacedAtTime="18976.00" probability="0" edges="90077241 8921938 110361656 111319423 27397919 179235243#1 364480068#1 364480068#2 -256400251#1 -111560682 224373751 28319343#0 28319343#1 28319343#2 28319343#3 254756521#0 254756521#3 254756521#5 254756521#6 32931798#3 27146036#0 27146036#1 -p3#1 27398048#2"/>
            <route replacedOnEdge="27398048#2" replacedOnIndex="23" reason="traci:changeTarget" replacedAtTime="18983.00" probability="0" edges="90077241 8921938 110361656 111319423 27397919 179235243#1 364480068#1 364480068#2 -256400251#1 -111560682 224373751 28319343#0 28319343#1 28319343#2 28319343#3 254756521#0 254756521#3 254756521#5 254756521#6 32931798#3 27146036#0 27146036#1 -p3#1 27398048#2 254756520#0"/>
            <route edges="90077241 8921938 110361656 111319423 27397919 179235243#1 364480068#1 364480068#2 -256400251#1 -111560682 224373751 28319343#0 28319343#1 28319343#2 28319343#3 254756521#0 254756521#3 254756521#5 254756521#6 32931798#3 27146036#0 27146036#1 -p3#1 27398048#2 254756520#0 254756520#2 254756520#3 254396710#0 254396710#1 88597563#0 256400244#0 225432457 -99231486 364480601#0 283537380#0 283537380#1 283537380#2 8915351 50690291#0 50690291#1 gneE4 90077241"/>
        </routeDistribution>
        <stop parkingArea="parkingArea_27398048#2_0_237" duration="1035.00" parking="1"/>
    </vehicle>

    <vehicle id="18" type="vecType" depart="18000.00" arrival="20618.00">
        <routeDistribution>
            <route replacedOnEdge="88466052#1" replacedOnIndex="20" reason="traci:setRoute" replacedAtTime="18583.00" probability="0" edges="8916792 28518571#0 28518571#1 133755923#0 133755923#1 143617587 -143617589#6 -143617589#2 -143617589#1 -111550911#3 -111550911#2 -111550911#1 -111550911#0 -111550910#2 -111550910#1 -111550910#0 8922234#0 8922234#2 255330056#0 88466052#0 88466052#1 8916922#0"/>
            <route replacedOnEdge="8916922#0" replacedOnIndex="21" reason="traci:setRoute" replacedAtTime="18635.00" probability="0" edges="8916792 28518571#0 28518571#1 133755923#0 133755923#1 143617587 -143617589#6 -143617589#2 -143617589#1 -111550911#3 -111550911#2 -111550911#1 -111550911#0 -111550910#2 -111550910#1 -111550910#0 8922234#0 8922234#2 255330056#0 88466052#0 88466052#1 8916922#0 24335490#0"/>
            <route replacedOnEdge="24335490#0" replacedOnIndex="22" reason="traci:changeTarget" replacedAtTime="18647.00" probability="0" edges="8916792 28518571#0 28518571#1 133755923#0 133755923#1 143617587 -143617589#6 -143617589#2 -143617589#1 -111550911#3 -111550911#2 -111550911#1 -111550911#0 -111550910#2 -111550910#1 -111550910#0 8922234#0 8922234#2 255330056#0 88466052#0 88466052#1 8916922#0 24335490#0 88463829#0"/>
            <route edges="8916792 28518571#0 28518571#1 133755923#0 133755923#1 143617587 -143617589#6 -143617589#2 -143617589#1 -111550911#3 -111550911#2 -111550911#1 -111550911#0 -111550910#2 -111550910#1 -111550910#0 8922234#0 8922234#2 255330056#0 88466052#0 88466052#1 8916922#0 24335490#0 88463829#0 8918793#0 8918793#3 255330057#0 111550910#1 111550910#2 111550911#0 111550911#1 111550911#2 111550911#3 143617589#0 143617589#2 143617589#3 -143617587 -133755923#1 -133755923#0 -28518571#1 -28518571#0 -8916792 8916792"/>
        </routeDistribution>
        <stop parkingArea="parkingArea_24335490#0_0_439" duration="1372.00" parking="1"/>
    </vehicle>

    <vehicle id="155" type="vecType" depart="18480.00" arrival="20620.00">
        <routeDistribution>
            <route replacedOnEdge="-225432462#1" replacedOnIndex="21" reason="traci:setRoute" replacedAtTime="18810.00" probability="0" edges="-133755930#1 -133755930#0 -27656675 26943623 133735130#0 255330036#7 -8919615#1 -8919615#0 8916553#1 -8916551 -88559680#2 -88559661#2 28842183 -283537644#1 -283537552#1 -283537552#0 -35675861#1 8922307 364480069 364480068#0 364480068#1 -225432462#1 -99231475"/>
            <route replacedOnEdge="-99231475" replacedOnIndex="22" reason="traci:changeTarget" replacedAtTime="18820.00" probability="0" edges="-133755930#1 -133755930#0 -27656675 26943623 133735130#0 255330036#7 -8919615#1 -8919615#0 8916553#1 -8916551 -88559680#2 -88559661#2 28842183 -283537644#1 -283537552#1 -283537552#0 -35675861#1 8922307 364480069 364480068#0 364480068#1 -225432462#1 -99231475 99231463#0"/>
            <route edges="-133755930#1 -133755930#0 -27656675 26943623 133735130#0 255330036#7 -8919615#1 -8919615#0 8916553#1 -8916551 -88559680#2 -88559661#2 28842183 -283537644#1 -283537552#1 -283537552#0 -35675861#1 8922307 364480069 364480068#0 364480068#1 -225432462#1 -99231475 99231475 225432457 27398032#0 -43100046 8917778 174822357#0 -255330036#12 -255330036#11 -255330036#10 88559680#5 224384059#0 8920394#1 27656675 133755930#0 133755930#1 -133755930#1"/>
        </routeDistribution>
        <stop parkingArea="parkingArea_-99231475_0_428" duration="1436.00" parking="1"/>
    </vehicle>

    <vehicle id="1" type="vecType" depart="18000.00" arrival="20635.00">
        <routeDistribution>
            <route replacedOnEdge="-264874017#5" replacedOnIndex="11" reason="traci:setRoute" replacedAtTime="18113.00" probability="0" edges="31129765 123741465 8915117 8915115#0 8915115#1 254299118#0 254299118#1 254299118#2 254299118#3 -254305050#1 -254305050#0 -264874017#5 8922291#0"/>
            <route replacedOnEdge="8922291#0" replacedOnIndex="12" reason="traci:changeTarget" replacedAtTime="18128.00" probability="0" edges="31129765 123741465 8915117 8915115#0 8915115#1 254299118#0 254299118#1 254299118#2 254299118#3 -254305050#1 -254305050#0 -264874017#5 8922291#0 -214545530#6"/>
            <route edges="31129765 123741465 8915117 8915115#0 8915115#1 254299118#0 254299118#1 254299118#2 254299118#3 -254305050#1 -254305050#0 -264874017#5 8922291#0 214545530#7 143617585#0 143617585#1 143617585#2 254305033#0 254305033#1 254305033#2 254305033#3 254305033#4 254305033#5 8915588 254299122 154966358 gneE27 31129765"/>
        </routeDistribution>
        <stop parkingArea="parkingArea_8922291#0_0_762" duration="2332.00" parking="1"/>
    </vehicle>

    <vehicle id="23" type="vecType" depart="18000.00" arrival="20663.00">
        <routeDistribution>
            <route replacedOnEdge="8919338" replacedOnIndex="21" reason="traci:setRoute" replacedAtTime="18550.00" probability="0" edges="133733582#2 225853134 225853133 254759933#4 8921141#0 -88572914#2 -88572941 -88572932#2 -88572932#1 -88572932#0 88572895#0 214545530#0 25657409#19 255168047#0 255168047#3 255168046#0 255168046#2 225518502#0 225518502#2 225518502#3 283537380#0 8919338"/>
            <route replacedOnEdge="8919338" replacedOnIndex="21" reason="traci:changeTarget" replacedAtTime="18558.00" probability="0" edges="133733582#2 225853134 225853133 254759933#4 8921141#0 -88572914#2 -88572941 -88572932#2 -88572932#1 -88572932#0 88572895#0 214545530#0 25657409#19 255168047#0 255168047#3 255168046#0 255168046#2 225518502#0 225518502#2 225518502#3 283537380#0 8919338 8915752"/>