<?xml version="1.0" encoding="UTF-8"?>

<!-- generated on 2022-12-12 13:01:28 by Eclipse SUMO sumo Version 1.14.1
<configuration xmlns:xsi="http://www.w3.org/2001/XMLSchema-instance" xsi:noNamespaceSchemaLocation="http://sumo.dlr.de/xsd/sumoConfiguration.xsd">

    <input>
        <net-file value="./strategia1_config/../san_francisco.net.xml"/>
        <route-files value="./strategia1_config/../san_francisco.rou.xml"/>
        <additional-files value="./strategia1_config/../san_francisco.poly.xml,./strategia1_config/../parking_capacity_100%25/off_parking_100%25.add.xml,./strategia1_config/../parking_capacity_100%25/on_parking_100%25.add.xml"/>
    </input>

    <output>
        <emission-output value="./strategia1_config/../output/strategia1/100%25/emission.xml"/>
        <summary-output value="./strategia1_config/../output/strategia1/100%25/summary.xml"/>
        <tripinfo-output value="./strategia1_config/../output/strategia1/100%25/tripinfo.xml"/>
        <vehroute-output value="./strategia1_config/../output/strategia1/100%25/vehroute.xml"/>
        <stop-output value="./strategia1_config/../output/strategia1/100%25/stops.xml"/>
        <collision-output value="./strategia1_config/../output/strategia1/100%25/collision.xml"/>
        <statistic-output value="./strategia1_config/../output/strategia1/100%25/statistic.xml"/>
    </output>

    <time>
        <step-length value="1"/>
    </time>

    <processing>
        <ignore-route-errors value="false"/>
        <time-to-teleport value="-1"/>
    </processing>

    <report>
        <verbose value="true"/>
        <xml-validation value="never"/>
    </report>

    <traci_server>
        <remote-port value="55153"/>
    </traci_server>

    <gui_only>
        <gui-settings-file value="./strategia1_config/../gui-settings.cfg"/>
        <start value="true"/>
    </gui_only>

</configuration>
-->

<routes xmlns:xsi="http://www.w3.org/2001/XMLSchema-instance" xsi:noNamespaceSchemaLocation="http://sumo.dlr.de/xsd/routes_file.xsd">
    <vehicle id="35" type="vecType" depart="18000.00" color="red" arrival="18607.00">
        <routeDistribution>
            <route replacedOnEdge="-28843496" replacedOnIndex="43" reason="traci:changeTarget" replacedAtTime="18607.00" probability="0" edges="191296172#0 191296172#1 -24335440#2 -24335440#1 -24335440#0 24335439#0 24335439#1 24335439#2 -27029263 -88572874#2 -88572874#1 -88572874#0 -88572887#1 -88572887#0 -88572914#2 -88572941 -88572932#2 -88572932#1 -88572932#0 -51392400 -51392402#0 -51392402#1 -111560680 86334994#0 111552058#0 -228196396 -204884387#2 -224384019#1 -224384018 -225719777#1 -204884378#1 -228186482#1 -202317711 -224373753 28319343#0 28319343#1 28319343#2 28319343#3 254756521#0 254756521#3 254756521#5 254756521#6 262943779 -28843496 -47108420#4 47108420#4"/>
            <route edges="191296172#0 191296172#1 -24335440#2 -24335440#1 -24335440#0 24335439#0 24335439#1 24335439#2 -27029263 -88572874#2 -88572874#1 -88572874#0 -88572887#1 -88572887#0 -88572914#2 -88572941 -88572932#2 -88572932#1 -88572932#0 -51392400 -51392402#0 -51392402#1 -111560680 86334994#0 111552058#0 -228196396 -204884387#2 -224384019#1 -224384018 -225719777#1 -204884378#1 -228186482#1 -202317711 -224373753 28319343#0 28319343#1 28319343#2 28319343#3 254756521#0 254756521#3 254756521#5 254756521#6 262943779 -28843496 -47108420#4"/>
        </routeDistribution>
    </vehicle>

    <vehicle id="21" type="vecType" depart="18000.00" color="yellow" arrival="18710.00">
        <routeDistribution>
            <route replacedOnEdge="-35675861#1" replacedOnIndex="20" reason="traci:changeTarget" replacedAtTime="18282.00" probability="0" edges="27167762 123741465 8915117 8915115#0 8915115#1 254299118#0 254299118#1 254299118#2 254299118#3 254308548#0 254308548#2 186400365 143666207#0 254299117#0 254299117#1 -88559661#2 28842183 -283537644#1 -283537552#1 -283537552#0 -35675861#1 35675861#1"/>
            <route replacedOnEdge="35675861#1" replacedOnIndex="21" reason="traci:changeTarget" replacedAtTime="18327.00" probability="0" edges="27167762 123741465 8915117 8915115#0 8915115#1 254299118#0 254299118#1 254299118#2 254299118#3 254308548#0 254308548#2 186400365 143666207#0 254299117#0 254299117#1 -88559661#2 28842183 -283537644#1 -283537552#1 -283537552#0 -35675861#1 35675861#1 8915351"/>
            <route replacedOnEdge="8915351" replacedOnIndex="22" reason="traci:changeTarget" replacedAtTime="18376.00" probability="0" edges="27167762 123741465 8915117 8915115#0 8915115#1 254299118#0 254299118#1 254299118#2 254299118#3 254308548#0 254308548#2 186400365 143666207#0 254299117#0 254299117#1 -88559661#2 28842183 -283537644#1 -283537552#1 -283537552#0 -35675861#1 35675861#1 8915351 50690291#0"/>
            <route replacedOnEdge="50690291#0" replacedOnIndex="23" reason="traci:changeTarget" replacedAtTime="18379.00" probability="0" edges="27167762 123741465 8915117 8915115#0 8915115#1 254299118#0 254299118#1 254299118#2 254299118#3 254308548#0 254308548#2 186400365 143666207#0 254299117#0 254299117#1 -88559661#2 28842183 -283537644#1 -283537552#1 -283537552#0 -35675861#1 35675861#1 8915351 50690291#0 50690291#1"/>
            <route edges="27167762 123741465 8915117 8915115#0 8915115#1 254299118#0 254299118#1 254299118#2 254299118#3 254308548#0 254308548#2 186400365 143666207#0 254299117#0 254299117#1 -88559661#2 28842183 -283537644#1 -283537552#1 -283537552#0 -35675861#1 35675861#1 8915351 50690291#0 50690291#1 gneE4 90077241 8921938 120813417 202485364 31129732#0 31129732#1 31129732#2 254299122 8915263 gneE20 27167762"/>
        </routeDistribution>
    </vehicle>

    <vehicle id="64" type="vecType" depart="18060.00" color="yellow" arrival="18872.00">
        <routeDistribution>
            <route replacedOnEdge="50690291#0" replacedOnIndex="16" reason="traci:changeTarget" replacedAtTime="18337.00" probability="0" edges="28319343#2 28319343#3 24245406 224199013#0 224199013#1 224199013#2 224373753 88597563#0 256400244#0 225432457 -99231486 364480601#0 283537380#0 283537380#1 283537380#2 8915351 50690291#0 50690291#1"/>
            <route edges="28319343#2 28319343#3 24245406 224199013#0 224199013#1 224199013#2 224373753 88597563#0 256400244#0 225432457 -99231486 364480601#0 283537380#0 283537380#1 283537380#2 8915351 50690291#0 50690291#1 gneE4 90077241 8921938 120813417 31129372 -35675861#0 -35675862 27397692 8918460#0 99231463#0 224373751 28319343#0 28319343#1 28319343#2"/>
        </routeDistribution>
    </vehicle>

    <vehicle id="56" type="vecType" depart="18066.00" color="yellow" arrival="18970.00">
        <routeDistribution>
            <route replacedOnEdge="-35675861#1" replacedOnIndex="20" reason="traci:changeTarget" replacedAtTime="18463.00" probability="0" edges="31129765 123741465 8915117 8915115#0 8915115#1 254299118#0 254299118#1 254299118#2 254299118#3 254308548#0 254308548#2 186400365 143666207#0 254299117#0 254299117#1 -88559661#2 28842183 -283537644#1 -283537552#1 -283537552#0 -35675861#1 35675861#1"/>
            <route replacedOnEdge="35675861#1" replacedOnIndex="21" reason="traci:changeTarget" replacedAtTime="18508.00" probability="0" edges="31129765 123741465 8915117 8915115#0 8915115#1 254299118#0 254299118#1 254299118#2 254299118#3 254308548#0 254308548#2 186400365 143666207#0 254299117#0 254299117#1 -88559661#2 28842183 -283537644#1 -283537552#1 -283537552#0 -35675861#1 35675861#1 8915351"/>
            <route replacedOnEdge="8915351" replacedOnIndex="22" reason="traci:changeTarget" replacedAtTime="18554.00" probability="0" edges="31129765 123741465 8915117 8915115#0 8915115#1 254299118#0 254299118#1 254299118#2 254299118#3 254308548#0 254308548#2 186400365 143666207#0 254299117#0 254299117#1 -88559661#2 28842183 -283537644#1 -283537552#1 -283537552#0 -35675861#1 35675861#1 8915351 50690291#0"/>
            <route replacedOnEdge="50690291#0" replacedOnIndex="23" reason="traci:changeTarget" replacedAtTime="18557.00" probability="0" edges="31129765 123741465 8915117 8915115#0 8915115#1 254299118#0 254299118#1 254299118#2 254299118#3 254308548#0 254308548#2 186400365 143666207#0 254299117#0 254299117#1 -88559661#2 28842183 -283537644#1 -283537552#1 -283537552#0 -35675861#1 35675861#1 8915351 50690291#0 50690291#1"/>
            <route edges="31129765 123741465 8915117 8915115#0 8915115#1 254299118#0 254299118#1 254299118#2 254299118#3 254308548#0 254308548#2 186400365 143666207#0 254299117#0 254299117#1 -88559661#2 28842183 -283537644#1 -283537552#1 -283537552#0 -35675861#1 35675861#1 8915351 50690291#0 50690291#1 gneE4 90077241 8921938 120813417 202485364 31129732#0 31129732#1 31129732#2 254299122 154966358 gneE27 31129765"/>
        </routeDistribution>
    </vehicle>

    <vehicle id="68" type="vecType" depart="18060.00" color="yellow" arrival="18982.00">
        <routeDistribution>
            <route replacedOnEdge="-35675861#0" replacedOnIndex="21" reason="traci:changeTarget" replacedAtTime="18416.00" probability="0" edges="27167762 123741465 8915117 8915115#0 8915115#1 254299118#0 254299118#1 254299118#2 254299118#3 254308548#0 254308548#2 186400365 143666207#0 254299117#0 254299117#1 -88559661#2 28842183 -283537644#1 -283537552#1 -283537552#0 -35675861#1 -35675861#0 35675861#0"/>
            <route replacedOnEdge="35675861#0" replacedOnIndex="22" reason="traci:changeTarget" replacedAtTime="18425.00" probability="0" edges="27167762 123741465 8915117 8915115#0 8915115#1 254299118#0 254299118#1 254299118#2 254299118#3 254308548#0 254308548#2 186400365 143666207#0 254299117#0 254299117#1 -88559661#2 28842183 -283537644#1 -283537552#1 -283537552#0 -35675861#1 -35675861#0 35675861#0 35675861#1"/>
            <route replacedOnEdge="35675861#1" replacedOnIndex="23" reason="traci:changeTarget" replacedAtTime="18435.00" probability="0" edges="27167762 123741465 8915117 8915115#0 8915115#1 254299118#0 254299118#1 254299118#2 254299118#3 254308548#0 254308548#2 186400365 143666207#0 254299117#0 254299117#1 -88559661#2 28842183 -283537644#1 -283537552#1 -283537552#0 -35675861#1 -35675861#0 35675861#0 35675861#1 -35675861#1"/>
            <route replacedOnEdge="-35675861#1" replacedOnIndex="24" reason="traci:changeTarget" replacedAtTime="18501.00" probability="0" edges="27167762 123741465 8915117 8915115#0 8915115#1 254299118#0 254299118#1 254299118#2 254299118#3 254308548#0 254308548#2 186400365 143666207#0 254299117#0 254299117#1 -88559661#2 28842183 -283537644#1 -283537552#1 -283537552#0 -35675861#1 -35675861#0 35675861#0 35675861#1 -35675861#1 8922307"/>
            <route replacedOnEdge="8922307" replacedOnIndex="25" reason="traci:changeTarget" replacedAtTime="18519.00" probability="0" edges="27167762 123741465 8915117 8915115#0 8915115#1 254299118#0 254299118#1 254299118#2 254299118#3 254308548#0 254308548#2 186400365 143666207#0 254299117#0 254299117#1 -88559661#2 28842183 -283537644#1 -283537552#1 -283537552#0 -35675861#1 -35675861#0 35675861#0 35675861#1 -35675861#1 8922307 364480601#0"/>
            <route replacedOnEdge="364480601#0" replacedOnIndex="26" reason="traci:changeTarget" replacedAtTime="18530.00" probability="0" edges="27167762 123741465 8915117 8915115#0 8915115#1 254299118#0 254299118#1 254299118#2 254299118#3 254308548#0 254308548#2 186400365 143666207#0 254299117#0 254299117#1 -88559661#2 28842183 -283537644#1 -283537552#1 -283537552#0 -35675861#1 -35675861#0 35675861#0 35675861#1 -35675861#1 8922307 364480601#0 283537380#0"/>
            <route replacedOnEdge="283537380#0" replacedOnIndex="27" reason="traci:changeTarget" replacedAtTime="18549.00" probability="0" edges="27167762 123741465 8915117 8915115#0 8915115#1 254299118#0 254299118#1 254299118#2 254299118#3 254308548#0 254308548#2 186400365 143666207#0 254299117#0 254299117#1 -88559661#2 28842183 -283537644#1 -283537552#1 -283537552#0 -35675861#1 -35675861#0 35675861#0 35675861#1 -35675861#1 8922307 364480601#0 283537380#0 283537380#1"/>
            <route replacedOnEdge="283537380#1" replacedOnIndex="28" reason="traci:changeTarget" replacedAtTime="18555.00" probability="0" edges="27167762 123741465 8915117 8915115#0 8915115#1 254299118#0 254299118#1 254299118#2 254299118#3 254308548#0 254308548#2 186400365 143666207#0 254299117#0 254299117#1 -88559661#2 28842183 -283537644#1 -283537552#1 -283537552#0 -35675861#1 -35675861#0 35675861#0 35675861#1 -35675861#1 8922307 364480601#0 283537380#0 283537380#1 283537380#2"/>
            <route replacedOnEdge="283537380#2" replacedOnIndex="29" reason="traci:changeTarget" replacedAtTime="18595.00" probability="0" edges="27167762 123741465 8915117 8915115#0 8915115#1 254299118#0 254299118#1 254299118#2 254299118#3 254308548#0 254308548#2 186400365 143666207#0 254299117#0 254299117#1 -88559661#2 28842183 -283537644#1 -283537552#1 -283537552#0 -35675861#1 -35675861#0 35675861#0 35675861#1 -35675861#1 8922307 364480601#0 283537380#0 283537380#1 283537380#2 -35675861#1"/>
            <route replacedOnEdge="-35675861#1" replacedOnIndex="30" reason="traci:changeTarget" replacedAtTime="18607.00" probability="0" edges="27167762 123741465 8915117 8915115#0 8915115#1 254299118#0 254299118#1 254299118#2 254299118#3 254308548#0 254308548#2 186400365 143666207#0 254299117#0 254299117#1 -88559661#2 28842183 -283537644#1 -283537552#1 -283537552#0 -35675861#1 -35675861#0 35675861#0 35675861#1 -35675861#1 8922307 364480601#0 283537380#0 283537380#1 283537380#2 -35675861#1 35675861#1"/>
            <route replacedOnEdge="35675861#1" replacedOnIndex="31" reason="traci:changeTarget" replacedAtTime="18639.00" probability="0" edges="27167762 123741465 8915117 8915115#0 8915115#1 254299118#0 254299118#1 254299118#2 254299118#3 254308548#0 254308548#2 186400365 143666207#0 254299117#0 254299117#1 -88559661#2 28842183 -283537644#1 -283537552#1 -283537552#0 -35675861#1 -35675861#0 35675861#0 35675861#1 -35675861#1 8922307 364480601#0 283537380#0 283537380#1 283537380#2 -35675861#1 35675861#1 8915351"/>
            <route replacedOnEdge="8915351" replacedOnIndex="32" reason="traci:changeTarget" replacedAtTime="18656.00" probability="0" edges="27167762 123741465 8915117 8915115#0 8915115#1 254299118#0 254299118#1 254299118#2 254299118#3 254308548#0 254308548#2 186400365 143666207#0 254299117#0 254299117#1 -88559661#2 28842183 -283537644#1 -283537552#1 -283537552#0 -35675861#1 -35675861#0 35675861#0 35675861#1 -35675861#1 8922307 364480601#0 283537380#0 283537380#1 283537380#2 -35675861#1 35675861#1 8915351 50690291#0"/>
            <route replacedOnEdge="50690291#0" replacedOnIndex="33" reason="traci:changeTarget" replacedAtTime="18660.00" probability="0" edges="27167762 123741465 8915117 8915115#0 8915115#1 254299118#0 254299118#1 254299118#2 254299118#3 254308548#0 254308548#2 186400365 143666207#0 254299117#0 254299117#1 -88559661#2 28842183 -283537644#1 -283537552#1 -283537552#0 -35675861#1 -35675861#0 35675861#0 35675861#1 -35675861#1 8922307 364480601#0 283537380#0 283537380#1 283537380#2 -35675861#1 35675861#1 8915351 50690291#0 50690291#1"/>
            <route edges="27167762 123741465 8915117 8915115#0 8915115#1 254299118#0 254299118#1 254299118#2 254299118#3 254308548#0 254308548#2 186400365 143666207#0 254299117#0 254299117#1 -88559661#2 28842183 -283537644#1 -283537552#1 -283537552#0 -35675861#1 -35675861#0 35675861#0 35675861#1 -35675861#1 8922307 364480601#0 283537380#0 283537380#1 283537380#2 -35675861#1 35675861#1 8915351 50690291#0 50690291#1 gneE4 90077241 8921938 120813417 202485364 31129732#0 31129732#1 31129732#2 254299122 8915263 gneE20 27167762"/>
        </routeDistribution>
    </vehicle>

    <vehicle id="71" type="vecType" depart="18120.00" color="yellow" arrival="19059.00">
        <routeDistribution>
            <route replacedOnEdge="175354957#1" replacedOnIndex="14" reason="traci:changeTarget" replacedAtTime="18401.00" probability="0" edges="52432938#0 52432938#1 255351721#0 -27656675 26943623 133735130#0 255330036#7 -8919615#1 -8919615#0 8916553#1 -8916551 -88559680#2 88559650 175354957#0 175354957#1 50690291#1"/>
            <route edges="52432938#0 52432938#1 255351721#0 -27656675 26943623 133735130#0 255330036#7 -8919615#1 -8919615#0 8916553#1 -8916551 -88559680#2 88559650 175354957#0 175354957#1 50690291#1 gneE4 90077241 8921938 120813417 202485364 8915062 143617593 254758139#0 254758139#1 162931811#0 162931811#1 143617587 26943653#0 52432939 255330070#0 255330070#3 52432938#0"/>
        </routeDistribution>
    </vehicle>

    <vehicle id="94" type="vecType" depart="18120.00" color="yellow" arrival="19248.00">
        <routeDistribution>
            <route replacedOnEdge="50690291#0" replacedOnIndex="19" reason="traci:changeTarget" replacedAtTime="18606.00" probability="0" edges="254758124#0 254758124#1 86303763#6 86303763#10 86303763#11 86303763#14 86303763#17 111586257 28841123#0 224316522#0 133733590#0 -224384019#1 88597577#0 88559691#0 88559691#4 225518502#0 329607867 27772070 202317709 50690291#0 50690291#1"/>
            <route edges="254758124#0 254758124#1 86303763#6 86303763#10 86303763#11 86303763#14 86303763#17 111586257 28841123#0 224316522#0 133733590#0 -224384019#1 88597577#0 88559691#0 88559691#4 225518502#0 329607867 27772070 202317709 50690291#0 50690291#1 gneE4 90077241 8921938 120813417 202485364 8915062 -214545530#7 -214545530#6 -214545530#3 -214545530#2 -88572895#2 -88572895#0 -85789166#3 85789165 30832507#0 30832507#1 27400639#0 27400639#1 26938124#4 26938124#5 26938124#6 26938124#9 26938124#12 26938124#13 100400947#4 27166444 254758124#0"/>
        </routeDistribution>
    </vehicle>

    <vehicle id="69" type="vecType" depart="18060.00" color="yellow" arrival="19490.00">
        <routeDistribution>
            <route replacedOnEdge="-35675861#1" replacedOnIndex="35" reason="traci:changeTarget" replacedAtTime="18604.00" probability="0" edges="-206679802#4 -206679802#3 -206679802#1 -30029878#9 -206662304#6 -206662304#4 -206662304#1 -254756527 148846996#1 148846996#2 -48211487#2 -48211487#1 -48211487#0 48211960 87376672#0 87376672#1 -91185877#1 -91185877#0 -254971056#1 -8922640#1 27054205#0 27054205#1 27054209#0 -254756526#1 -254396719#1 -254466686#4 27054213#4 27054213#6 91181774#0 8919020#0 88572905 91181770#0 283537380#0 283537380#1 283537380#2 -35675861#1 35675861#1"/>
            <r