<?xml version="1.0" encoding="UTF-8"?>

<!-- generated on 2022-12-23 13:49:36 by Eclipse SUMO sumo Version 1.14.1
<configuration xmlns:xsi="http://www.w3.org/2001/XMLSchema-instance" xsi:noNamespaceSchemaLocation="http://sumo.dlr.de/xsd/sumoConfiguration.xsd">

    <input>
        <net-file value="./strategia1_config/../san_francisco.net.xml"/>
        <route-files value="./strategia1_config/../san_francisco.rou.xml"/>
        <additional-files value="./strategia1_config/../san_francisco.poly.xml,./strategia1_config/../parking_capacity_100%25/off_parking_100%25.add.xml,./strategia1_config/../parking_capacity_100%25/on_parking_100%25.add.xml"/>
    </input>

    <output>
        <emission-output value="./strategia1_config/../output/strategia1/100%25/emissions.xml"/>
        <tripinfo-output value="./strategia1_config/../output/strategia1/100%25/tripinfo.xml"/>
        <vehroute-output value="./strategia1_config/../output/strategia1/100%25/vehroute.xml"/>
        <stop-output value="./strategia1_config/../output/strategia1/100%25/stops.xml"/>
        <collision-output value="./strategia1_config/../output/strategia1/100%25/collision.xml"/>
        <statistic-output value="./strategia1_config/../output/strategia1/100%25/statistic.xml"/>
    </output>

    <time>
        <step-length value="1"/>
    </time>

    <processing>
        <ignore-route-errors value="false"/>
    </processing>

    <report>
        <verbose value="true"/>
        <xml-validation value="never"/>
    </report>

    <traci_server>
        <remote-port value="50957"/>
    </traci_server>

    <gui_only>
        <gui-settings-file value="./strategia1_config/../gui-settings.cfg"/>
        <start value="true"/>
    </gui_only>

</configuration>
-->

<routes xmlns:xsi="http://www.w3.org/2001/XMLSchema-instance" xsi:noNamespaceSchemaLocation="http://sumo.dlr.de/xsd/routes_file.xsd">
    <vehicle id="0" type="vecType" depart="18000.00" arrival="18521.00">
        <routeDistribution>
            <route replacedOnEdge="255330036#10" replacedOnIndex="11" reason="traci:setRoute" replacedAtTime="18280.00" probability="0" edges="123867455 8920391#0 255330048 255351721#0 -27656675 26943623 -111550911#3 -111550911#2 -111550911#1 -111550911#0 -88559680#5 255330036#10 255330036#11"/>
            <route replacedOnEdge="255330036#11" replacedOnIndex="12" reason="traci:setRoute" replacedAtTime="18285.00" probability="0" edges="123867455 8920391#0 255330048 255351721#0 -27656675 26943623 -111550911#3 -111550911#2 -111550911#1 -111550911#0 -88559680#5 255330036#10 255330036#11 -255330036#11"/>
            <route replacedOnEdge="-255330036#11" replacedOnIndex="13" reason="traci:changeTarget" replacedAtTime="18291.00" probability="0" edges="123867455 8920391#0 255330048 255351721#0 -27656675 26943623 -111550911#3 -111550911#2 -111550911#1 -111550911#0 -88559680#5 255330036#10 255330036#11 -255330036#11 -255330036#10"/>
            <route edges="123867455 8920391#0 255330048 255351721#0 -27656675 26943623 -111550911#3 -111550911#2 -111550911#1 -111550911#0 -88559680#5 255330036#10 255330036#11 -255330036#11 -255330036#10 88559680#5 224384059#0 8920394#1 27145438#0 255330047#0 30454437 gneE21 123867455"/>
        </routeDistribution>
        <stop parkingArea="parkingArea_-255330036#11_0_91" duration="3.00" parking="1"/>
    </vehicle>

    <vehicle id="2" type="vecType" depart="18006.00" arrival="18610.00">
        <routeDistribution>
            <route replacedOnEdge="255330036#10" replacedOnIndex="11" reason="traci:setRoute" replacedAtTime="18372.00" probability="0" edges="123867455 8920391#0 255330048 255351721#0 -27656675 26943623 -111550911#3 -111550911#2 -111550911#1 -111550911#0 -88559680#5 255330036#10 255330036#11"/>
            <route replacedOnEdge="255330036#11" replacedOnIndex="12" reason="traci:setRoute" replacedAtTime="18377.00" probability="0" edges="123867455 8920391#0 255330048 255351721#0 -27656675 26943623 -111550911#3 -111550911#2 -111550911#1 -111550911#0 -88559680#5 255330036#10 255330036#11 8921907"/>
            <route replacedOnEdge="8921907" replacedOnIndex="13" reason="traci:setRoute" replacedAtTime="18395.00" probability="0" edges="123867455 8920391#0 255330048 255351721#0 -27656675 26943623 -111550911#3 -111550911#2 -111550911#1 -111550911#0 -88559680#5 255330036#10 255330036#11 8921907 111550910#2"/>
            <route replacedOnEdge="111550910#2" replacedOnIndex="14" reason="traci:changeTarget" replacedAtTime="18400.00" probability="0" edges="123867455 8920391#0 255330048 255351721#0 -27656675 26943623 -111550911#3 -111550911#2 -111550911#1 -111550911#0 -88559680#5 255330036#10 255330036#11 8921907 111550910#2 -88559680#5"/>
            <route edges="123867455 8920391#0 255330048 255351721#0 -27656675 26943623 -111550911#3 -111550911#2 -111550911#1 -111550911#0 -88559680#5 255330036#10 255330036#11 8921907 111550910#2 224384059#0 8920394#1 27145438#0 255330047#0 30454437 gneE21 123867455"/>
        </routeDistribution>
        <stop parkingArea="parkingArea_111550910#2_0_479" duration="3.00" parking="1"/>
    </vehicle>

    <vehicle id="3" type="vecType" depart="18009.00" arrival="18700.00">
        <routeDistribution>
            <route replacedOnEdge="255330036#10" replacedOnIndex="11" reason="traci:setRoute" replacedAtTime="18459.00" probability="0" edges="123867455 8920391#0 255330048 255351721#0 -27656675 26943623 -111550911#3 -111550911#2 -111550911#1 -111550911#0 -88559680#5 255330036#10 255330036#11"/>
            <route replacedOnEdge="255330036#11" replacedOnIndex="12" reason="traci:setRoute" replacedAtTime="18463.00" probability="0" edges="123867455 8920391#0 255330048 255351721#0 -27656675 26943623 -111550911#3 -111550911#2 -111550911#1 -111550911#0 -88559680#5 255330036#10 255330036#11 255330036#12"/>
            <route replacedOnEdge="255330036#12" replacedOnIndex="13" reason="traci:setRoute" replacedAtTime="18483.00" probability="0" edges="123867455 8920391#0 255330048 255351721#0 -27656675 26943623 -111550911#3 -111550911#2 -111550911#1 -111550911#0 -88559680#5 255330036#10 255330036#11 255330036#12 -255330036#12"/>
            <route replacedOnEdge="-255330036#12" replacedOnIndex="14" reason="traci:changeTarget" replacedAtTime="18495.00" probability="0" edges="123867455 8920391#0 255330048 255351721#0 -27656675 26943623 -111550911#3 -111550911#2 -111550911#1 -111550911#0 -88559680#5 255330036#10 255330036#11 255330036#12 -255330036#12 8921907"/>
            <route edges="123867455 8920391#0 255330048 255351721#0 -27656675 26943623 -111550911#3 -111550911#2 -111550911#1 -111550911#0 -88559680#5 255330036#10 255330036#11 255330036#12 -255330036#12 -255330036#11 -255330036#10 88559680#5 224384059#0 8920394#1 27145438#0 255330047#0 30454437 gneE21 123867455"/>
        </routeDistribution>
        <stop parkingArea="parkingArea_-255330036#12_0_93" duration="3.00" parking="1"/>
    </vehicle>

    <vehicle id="1" type="vecType" depart="18003.00" arrival="18705.00">
        <routeDistribution>
            <route replacedOnEdge="255330036#10" replacedOnIndex="11" reason="traci:setRoute" replacedAtTime="18367.00" probability="0" edges="123867455 8920391#0 255330048 255351721#0 -27656675 26943623 -111550911#3 -111550911#2 -111550911#1 -111550911#0 -88559680#5 255330036#10 255330036#11"/>
            <route replacedOnEdge="255330036#11" replacedOnIndex="12" reason="traci:setRoute" replacedAtTime="18372.00" probability="0" edges="123867455 8920391#0 255330048 255351721#0 -27656675 26943623 -111550911#3 -111550911#2 -111550911#1 -111550911#0 -88559680#5 255330036#10 255330036#11 8921907"/>
            <route replacedOnEdge="8921907" replacedOnIndex="13" reason="traci:setRoute" replacedAtTime="18392.00" probability="0" edges="123867455 8920391#0 255330048 255351721#0 -27656675 26943623 -111550911#3 -111550911#2 -111550911#1 -111550911#0 -88559680#5 255330036#10 255330036#11 8921907 -111550910#1"/>
            <route replacedOnEdge="-111550910#1" replacedOnIndex="14" reason="traci:changeTarget" replacedAtTime="18399.00" probability="0" edges="123867455 8920391#0 255330048 255351721#0 -27656675 26943623 -111550911#3 -111550911#2 -111550911#1 -111550911#0 -88559680#5 255330036#10 255330036#11 8921907 -111550910#1 8920394#0"/>
            <route edges="123867455 8920391#0 255330048 255351721#0 -27656675 26943623 -111550911#3 -111550911#2 -111550911#1 -111550911#0 -88559680#5 255330036#10 255330036#11 8921907 -111550910#1 8920394#0 8920394#1 27145438#0 255330047#0 30454437 gneE21 123867455"/>
        </routeDistribution>
        <stop parkingArea="parkingArea_-111550910#1_0_480" duration="3.00" parking="1"/>
    </vehicle>

    <vehicle id="4" type="vecType" depart="18012.00" arrival="18786.00">
        <routeDistribution>
            <route replacedOnEdge="255330036#10" replacedOnIndex="11" reason="traci:setRoute" replacedAtTime="18462.00" probability="0" edges="123867455 8920391#0 255330048 255351721#0 -27656675 26943623 -111550911#3 -111550911#2 -111550911#1 -111550911#0 -88559680#5 255330036#10 255330036#11"/>
            <route replacedOnEdge="255330036#11" replacedOnIndex="12" reason="traci:setRoute" replacedAtTime="18466.00" probability="0" edges="123867455 8920391#0 255330048 255351721#0 -27656675 26943623 -111550911#3 -111550911#2 -111550911#1 -111550911#0 -88559680#5 255330036#10 255330036#11 255330036#12"/>
            <route replacedOnEdge="255330036#13" replacedOnIndex="14" reason="traci:setRoute" replacedAtTime="18486.00" probability="0" edges="123867455 8920391#0 255330048 255351721#0 -27656675 26943623 -111550911#3 -111550911#2 -111550911#1 -111550911#0 -88559680#5 255330036#10 255330036#11 255330036#12 255330036#13"/>
            <route replacedOnEdge="255330036#13" replacedOnIndex="14" reason="traci:changeTarget" replacedAtTime="18500.00" probability="0" edges="123867455 8920391#0 255330048 255351721#0 -27656675 26943623 -111550911#3 -111550911#2 -111550911#1 -111550911#0 -88559680#5 255330036#10 255330036#11 255330036#12 255330036#13 255330057#0"/>
            <route edges="123867455 8920391#0 255330048 255351721#0 -27656675 26943623 -111550911#3 -111550911#2 -111550911#1 -111550911#0 -88559680#5 255330036#10 255330036#11 255330036#12 255330036#13 255330057#0 8920394#0 8920394#1 27145438#0 255330047#0 30454437 gneE21 123867455"/>
        </routeDistribution>
        <stop parkingArea="parkingArea_255330036#13_0_94" duration="3.00" parking="1"/>
    </vehicle>

    <vehicle id="6" type="vecType" depart="18018.00" arrival="18876.00">
        <routeDistribution>
            <route replacedOnEdge="255330036#10" replacedOnIndex="11" reason="traci:setRoute" replacedAtTime="18551.00" probability="0" edges="123867455 8920391#0 255330048 255351721#0 -27656675 26943623 -111550911#3 -111550911#2 -111550911#1 -111550911#0 -88559680#5 255330036#10 255330036#11"/>
            <route replacedOnEdge="255330036#11" replacedOnIndex="12" reason="traci:setRoute" replacedAtTime="18556.00" probability="0" edges="123867455 8920391#0 255330048 255351721#0 -27656675 26943623 -111550911#3 -111550911#2 -111550911#1 -111550911#0 -88559680#5 255330036#10 255330036#11 -255330036#11"/>
            <route replacedOnEdge="-255330036#11" replacedOnIndex="13" reason="traci:changeTarget" replacedAtTime="18564.00" probability="0" edges="123867455 8920391#0 255330048 255351721#0 -27656675 26943623 -111550911#3 -111550911#2 -111550911#1 -111550911#0 -88559680#5 255330036#10 255330036#11 -255330036#11 -255330036#10"/>
            <route edges="123867455 8920391#0 255330048 255351721#0 -27656675 26943623 -111550911#3 -111550911#2 -111550911#1 -111550911#0 -88559680#5 255330036#10 255330036#11 -255330036#11 -255330036#10 88559680#5 224384059#0 8920394#1 27145438#0 255330047#0 30454437 gneE21 123867455"/>
        </routeDistribution>
        <stop parkingArea="parkingArea_-255330036#11_0_91" duration="3.00" parking="1"/>
    </vehicle>

    <vehicle id="17" type="vecType" depart="18051.00" arrival="18888.00">
        <routeDistribution>
            <route replacedOnEdge="255330036#10" replacedOnIndex="11" reason="traci:setRoute" replacedAtTime="18457.00" probability="0" edges="123867455 8920391#0 255330048 255351721#0 -27656675 26943623 -111550911#3 -111550911#2 -111550911#1 -111550911#0 -88559680#5 255330036#10 255330036#11"/>
            <route replacedOnEdge="255330036#11" replacedOnIndex="12" reason="traci:setRoute" replacedAtTime="18462.00" probability="0" edges="123867455 8920391#0 255330048 255351721#0 -27656675 26943623 -111550911#3 -111550911#2 -111550911#1 -111550911#0 -88559680#5 255330036#10 255330036#11 255330036#12"/>
            <route replacedOnEdge="255330036#12" replacedOnIndex="13" reason="traci:setRoute" replacedAtTime="18480.00" probability="0" edges="123867455 8920391#0 255330048 255351721#0 -27656675 26943623 -111550911#3 -111550911#2 -111550911#1 -111550911#0 -88559680#5 255330036#10 255330036#11 255330036#12 174822357#1"/>
            <route replacedOnEdge="-174822357#1" replacedOnIndex="15" reason="traci:setRoute" replacedAtTime="18493.00" probability="0" edges="123867455 8920391#0 255330048 255351721#0 -27656675 26943623 -111550911#3 -111550911#2 -111550911#1 -111550911#0 -88559680#5 255330036#10 255330036#11 255330036#12 174822357#1 -174822357#1"/>
            <route replacedOnEdge="-174822357#1" replacedOnIndex="15" reason="traci:changeTarget" replacedAtTime="18500.00" probability="0" edges="123867455 8920391#0 255330048 255351721#0 -27656675 26943623 -111550911#3 -111550911#2 -111550911#1 -111550911#0 -88559680#5 255330036#10 255330036#11 255330036#12 174822357#1 -174822357#1 255330036#13"/>
            <route edges="123867455 8920391#0 255330048 255351721#0 -27656675 26943623 -111550911#3 -111550911#2 -111550911#1 -111550911#0 -88559680#5 255330036#10 255330036#11 255330036#12 174822357#1 -174822357#1 -255330036#12 -255330036#11 -255330036#10 88559680#5 224384059#0 8920394#1 27145438#0 255330047#0 30454437 gneE21 123867455"/>
        </routeDistribution>
        <stop parkingArea="parkingArea_-174822357#1_0_95" duration="3.00" parking="1"/>
    </vehicle>

    <vehicle id="5" type="vecType" depart="18015.00" arrival="18903.00">
        <routeDistribution>
            <route replacedOnEdge="255330036#10" replacedOnIndex="11" reason="traci:setRoute" replacedAtTime="18547.00" probability="0" edges="123867455 8920391#0 255330048 255351721#0 -27656675 26943623 -111550911#3 -111550911#2 -111550911#1 -111550911#0 -88559680#5 255330036#10 255330036#11"/>
            <route replacedOnEdge="255330036#11" replacedOnIndex="12" reason="traci:setRoute" replacedAtTime="18553.00" probability="0" edges="123867455 8920391#0 255330048 255351721#0 -27656675 26943623 -111550911#3 -111550911#2 -111550911#1 -111550911#0 -88559680#5 255330036#10 255330036#11 -255330036#11"/>
            <route replacedOnEdge="-255330036#11" replacedOnIndex="13" reason="traci:changeTarget" replacedAtTime="18560.00" probability="0" edges="123867455 8920391#0 255330048 255351721#0 -27656675 26943623 -111550911#3 -111550911#2 -111550911#1 -111550911#0 -88559680#5 255330036#10 255330036#11 -255330036#11 -255330036#10"/>
            <route edges="123867455 8920391#0 255330048 255351721#0 -27656675 26943623 -111550911#3 -111550911#2 -111550911#1 -111550911#0 -88559680#5 255330036#10 255330036#11 -255330036#11 -255330036#10 88559680#5 224384059#0 8920394#1 27145438#0 255330047#0 30454437 gneE21 123867455"/>
        </routeDistribution>
        <stop parkingArea="parkingArea_-255330036#11_0_91" duration="3.00" parking="1"/>
    </vehicle>

    <vehicle id="10" type="vecType" depart="18030.00" arrival="18969.00">
        <routeDistribution>
            <route replacedOnEdge="255330036#10" replacedOnIndex="11" reason="traci:setRoute" replacedAtTime="18731.00" probability="0" edges="123867455 8920391#0 255330048 255351721#0 -27656675 26943623 -111550911#3 -111550911#2 -111550911#1 -111550911#0 -88559680#5 255330036#10 255330036#11"/>
            <route replacedOnEdge="255330036#11" replacedOnIndex="12" reason="traci:setRoute" replacedAtTime="18737.00" probability="0" edges="123867455 8920391#0 255330048 255351721#0 -27656675 26943623 -111550911#3 -111550911#2 -111550911#1 -111550911#0 -88559680#5 255330036#10 255330036#11 -255330036#11"/>
            <route replacedOnEdge="-255330036#11" replacedOnIndex="13" reason="traci:changeTarget" replacedAtTime="18744.00" probability="0" edges="123867455 8920391#0 255330048 255351721#0 -27656675 26943623 -111550911#3 -111550911#2 -111550911#1 -111550911#0 -88559680#5 255330036#10 255330036#11 -255330036#11 -255330036#10"/>
            <route edges="123867455 8920391#0 255330048 255351721#0 -27656675 26943623 -111550911#3 -111550911#2 -111550911#1 -111550911#0 -88559680#5 255330036#10 255330036#11 -255330036#11 -255330036#10 88559680#5 224384059#0 8920394#1 27145438#0 255330047#0 30454437 gneE21 123867455"/>
        </routeDistribution>
        <stop parkingArea="parkingArea_-255330036#11_0_91" duration="3.00" parking="1"/>
    </vehicle>

    <vehicle id="7" type="vecType" depart="18021.00" arrival="18981.00">
        <routeDistribution>
            <route replacedOnEdge="255330036#10" replacedOnIndex="11" reason="traci:setRoute" replacedAtTime="18637.00" probability="0" edges="123867455 8920391#0 255330048 255351721#0 -27656675 26943623 -111550911#3 -111550911#2 -111550911#1 -111550911#0 -88559680#5 255330036#10 255330036#11"/>
            <route replacedOnEdge="255330036#11" replacedOnIndex="12" reason="traci:setRoute" replacedAtTime="18642.00" probability="0" edges="123867455 8920391#0 255330048 255351721#0 -27656675 26943623 -111550911#3 -111550911#2 -111550911#1 -111550911#0 -88559680#5 255330036#10 255330036#11 8921907"/>
            <route replacedOnEdge="8921907" replacedOnIndex="13" reason="traci:setRoute" replacedAtTime="18664.00" probability="0" edges="123867455 8920391#0 255330048 255351721#0 -27656675 26943623 -111550911#3 -111550911#2 -111550911#1 -111550911#0 -88559680#5 255330036#10 255330036#11 8921907 -8921907"/>
            <route replacedOnEdge="-8921907" replacedOnIndex="14" reason="traci:changeTarget" replacedAtTime="18675.00" probability="0" edges="123867455 8920391#0 255330048 255351721#0 -27656675 26943623 -111550911#3 -111550911#2 -111550911#1 -111550911#0 -88559680#5 255330036#10 255330036#11 8921907 -8921907 -255330036#11"/>
            <route edges="123867455 8920391#0 255330048 255351721#0 -27656675 26943623 -111550911#3 -111550911#2 -111550911#1 -111550911#0 -88559680#5 255330036#10 255330036#11 8921907 -8921907 -255330036#11 -255330036#10 88559680#5 224384059#0 8920394#1 27145438#0 255330047#0 30454437 gneE21 123867455"/>
        </routeDistribution>
        <stop parkingArea="parkingArea_-8921907_0_473" duration="3.00" parking="1"/>
    </vehicle>

    <vehicle id="11" type="vecType" depart="18033.00" arrival="19059.00">
        <routeDistribution>
            <route replacedOnEdge="255330036#10" replacedOnIndex="11" reason="traci:setRoute" replacedAtTime="18733.00" probability="0" edges="123867455 8920391#0 255330048 255351721#0 -27656675 26943623 -111550911#3 -111550911#2 -111550911#1 -111550911#0 -88559680#5 255330036#10 255330036#11"/>
            <route replacedOnEdge="255330036#11" replacedOnIndex="12" reason="traci:setRoute" replacedAtTime="18739.00" probability="0" edges="123867455 8920391#0 255330048 255351721#0 -27656675 26943623 -111550911#3 -111550911#2 -111550911#1 -111550911#0 -88559680#5 255330036#10 255330036#11 8921907"/>
            <route replacedOnEdge="8921907" replacedOnIndex="13" reason="traci:setRoute" replacedAtTime="18757.00" probability="0" edges="123867455 8920391#0 255330048 255351721#0 -27656675 26943623 -111550911#3 -111550911#2 -111550911#1 -111550911#0 -88559680#5 255330036#10 255330036#11 8921907 -111550910#1"/>
            <route replacedOnEdge="-111550910#1" replacedOnIndex="14" reason="traci:changeTarget" replacedAtTime="18763.00" probability="0" edges="123867455 8920391#0 255330048 255351721#0 -27656675 26943623 -111550911#3 -111550911#2 -111550911#1 -111550911#0 -88559680#5 255330036#10 255330036#11 8921907 -111550910#1 -111550910#0"/>
            <route edges="123867455 8920391#0 255330048 255351721#0 -27656675 26943623 -111550911#3 -111550911#2 -111550911#1 -111550911#0 -88559680#5 255330036#10 255330036#11 8921907 -111550910#1 8920394#0 8920394#1 27145438#0 255330047#0 30454437 gneE21 123867455"/>
        </routeDistribution>
        <stop parkingArea="parkingArea_-111550910#1_0_480" duration="3.00" parking="1"/>
    </vehicle>

    <vehicle id="12" type="vecType" depart="18036.00" arrival="19065.00">
        <routeDistribution>
            <route replacedOnEdge="255330036#10" replacedOnIndex="11" reason="traci:setRoute" replacedAtTime="18821.00" probability="0" edges="123867455 8920391#0 255330048 255351721#0 -27656675 26943623 -111550911#3 -111550911#2 -111550911#1 -111550911#0 -88559680#5 255330036#10 255330036#11"/>
            <route replacedOnEdge="255330036#11" replacedOnIndex="12" reason="traci:setRoute" replacedAtTime="18826.00" probability="0" edges="123867455 8920391#0 255330048 255351721#0 -27656675 26943623 -111550911#3 -111550911#2 -111550911#1 -111550911#0 -88559680#5 255330036#10 255330036#11 -255330036#11"/>
            <route replacedOnEdge="-255330036#11" replacedOnIndex="13" reason="traci:changeTarget" replacedAtTime="18833.00" probability="0" edges="123867455 8920391#0 255330048 255351721#0 -27656675 26943623 -111550911#3 -111550911#2 -111550911#1 -111550911#0 -88559680#5 255330036#10 255330036#11 -255330036#11 -255330036#10"/>
            <route edges="123867455 8920391#0 255330048 255351721#0 -27656675 26943623 -111550911#3 -111550911#2 -111550911#1 -111550911#0 -88559680#5 255330036#10 255330036#11 -255330036#11 -255330036#10 88559680#5 224384059#0 8920394#1 27145438#0 255330047#0 30454437 gneE21 123867455"/>
        </routeDistribution>
        <stop parkingArea="parkingArea_-255330036#11_0_91" duration="3.00" parking="1"/>
    </vehicle>

    <vehicle id="8" type="vecType" depart="18024.00" arrival="19067.00">
        <routeDistribution>
            <route replacedOnEdge="255330036#10" replacedOnIndex="11" reason="traci:setRoute" replacedAtTime="18727.00" probability="0" edges="123867455 8920391#0 255330048 255351721#0 -27656675 26943623 -111550911#3 -111550911#2 -111550911#1 -111550911#0 -88559680#5 255330036#10 255330036#11"/>
            <route replacedOnEdge="-255330036#11" replacedOnIndex="13" reason="traci:setRoute" replacedAtTime="18733.00" probability="0" edges="123867455 8920391#0 255330048 255351721#0 -27656675 26943623 -111550911#3 -111550911#2 -111550911#1 -111550911#0 -88559680#5 255330036#10 255330036#11 -255330036#11"/>
            <route replacedOnEdge="-255330036#11" replacedOnIndex="13" reason="traci:changeTarget" replacedAtTime="18737.00" probability="0" edges="123867455 8920391#0 255330048 255351721#0 -27656675 26943623 -111550911#3 -111550911#2 -111550911#1 -111550911#0 -88559680#5 255330036#10 255330036#11 -255330036#11 -255330036#10"/>
            <route edges="123867455 8920391#0 255330048 255351721#0 -27656675 26943623 -111550911#3 -111550911#2 -111550911#1 -111550911#0 -88559680#5 255330036#10 255330036#11 -255330036#11 -255330036#10 88559680#5 224384059#0 8920394#1 27145438#0 255330047#0 30454437 gneE21 123867455"/>
        </routeDistribution>
        <stop parkingArea="parkingArea_-255330036#11_0_91" duration="3.00" parking="1"/>
    </vehicle>

    <vehicle id="13" type="vecType" depart="18039.00" arrival="19140.00">
        <routeDistribution>
            <route replacedOnEdge="255330036#10" replacedOnIndex="11" reason="traci:setRoute" replacedAtTime="18816.00" probability="0" edges="123867455 8920391#0 255330048 255351721#0 -27656675 26943623 -111550911#3 -111550911#2 -111550911#1 -111550911#0 -88559680#5 255330036#10 255330036#11"/>
            <route replacedOnEdge="255330036#11" replacedOnIndex="12" reason="traci:setRoute" replacedAtTime="18821.00" probability="0" edges="123867455 8920391#0 255330048 255351721#0 -27656675 26943623 -111550911#3 -111550911#2 -111550911#1 -111550911#0 -88559680#5 255330036#10 255330036#11 -255330036#11"/>
            <route replacedOnEdge="-255330036#11" replacedOnIndex="13" reason="traci:changeTarget" replacedAtTime="18828.00" probability="0" edges="123867455 8920391#0 255330048 255351721#0 -27656675 26943623 -111550911#3 -111550911#2 -111550911#1 -111550911#0 -88559680#5 255330036#10 255330036#11 -255330036#11 -255330036#10"/>
            <route edges="123867455 8920391#0 255330048 255351721#0 -27656675 26943623 -111550911#3 -111550911#2 -111550911#1 -111550911#0 -88559680#5 255330036#10 255330036#11 -255330036#11 -255330036#10 88559680#5 224384059#0 8920394#1 27145438#0 255330047#0 30454437 gneE21 123867455"/>
        </routeDistribution>
        <stop parkingArea="parkingArea_-255330036#11_0_91" duration="3.00" parking="1"/>
    </vehicle>

    <vehicle id="19" type="vecType" depart="18057.00" arrival="19143.00">
        <routeDistribution>
            <route replacedOnEdge="255330036#10" replacedOnIndex="11" reason="traci:setRoute" replacedAtTime="18911.00" probability="0" edges="123867455 8920391#0 255330048 255351721#0 -27656675 26943623 -111550911#3 -111550911#2 -111550911#1 -111550911#0 -88559680#5 255330036#10 255330036#11"/>
            <route replacedOnEdge="255330036#11" replacedOnIndex="12" reason="traci:setRoute" replacedAtTime="18917.00" probability="0" edges="123867455 8920391#0 255330048 255351721#0 -27656675 26943623 -111550911#3 -111550911#2 -111550911#1 -111550911#0 -88559680#5 255330036#10 255330036#11 8921907"/>
            <route replacedOnEdge="8921907" replacedOnIndex="13" reason="traci:setRoute" replacedAtTime="18934.00" probability="0" edges="123867455 8920391#0 255330048 255351721#0 -27656675 26943623 -111550911#3 -111550911#2 -111550911#1 -111550911#0 -88559680#5 255330036#10 255330036#11 8921907 111550910#2"/>
            <route replacedOnEdge="111550910#2" replacedOnIndex="14" reason="traci:changeTarget" replacedAtTime="18940.00" probability="0" edges="123867455 8920391#0 255330048 255351721#0 -27656675 26943623 -111550911#3 -111550911#2 -111550911#1 -111550911#0 -88559680#5 255330036#10 255330036#11 8921907 111550910#2 -111550910#2"/>
            <route edges="123867455 8920391#0 255330048 255351721#0 -27656675 26943623 -111550911#3 -111550911#2 -111550911#1 -111550911#0 -88559680#5 255330036#10 255330036#11 8921907 111550910#2 224384059#0 8920394#1 27145438#0 255330047#0 30454437 gneE21 123867455"/>
        </routeDistribution>
        <stop parkingArea="parkingArea_111550910#2_0_479" duration="3.00" parking="1"/>
    </vehicle>

    <vehicle id="9" type="vecType" depart="18027.00" arrival="19169.00">
        <routeDistribution>
            <route replacedOnEdge="255330036#10" replacedOnIndex="11" reason="traci:setRoute" replacedAtTime="18729.00" probability="0" edges="123867455 8920391#0 255330048 255351721#0 -27656675 26943623 -111550911#3 -111550911#2 -111550911#1 -111550911#0 -88559680#5 255330036#10 255330036#11"/>
            <route replacedOnEdge="255330036#11" replacedOnIndex="12" reason="traci:setRoute" replacedAtTime="18734.00" probability="0" edges="123867455 8920391#0 255330048 255351721#0 -27656675 26943623 -111550911#3 -111550911#2 -111550911#1 -111550911#0 -88559680#5 255330036#10 255330036#11 255330036#12"/>
            <route replacedOnEdge="255330036#12" replacedOnIndex="13" reason="traci:setRoute" replacedAtTime="18755.00" probability="0" edges="123867455 8920391#0 255330048 255351721#0 -27656675 26943623 -111550911#3 -111550911#2 -111550911#1 -111550911#0 -88559680#5 255330036#10 255330036#11 255330036#12 -174822357#0"/>
            <route replacedOnEdge="-174822357#0" replacedOnIndex="14" reason="traci:setRoute" replacedAtTime="18765.00" probability="0" edges="123867455 8920391#0 255330048 255351721#0 -27656675 26943623 -111550911#3 -111550911#2 -111550911#1 -111550911#0 -88559680#5 255330036#10 255330036#11 255330036#12 -174822357#0 43100047#0"/>
            <route replacedOnEdge="43100047#2" replacedOnIndex="16" reason="traci:setRoute" replacedAtTime="18771.00" probability="0" edges="123867455 8920391#0 255330048 255351721#0 -27656675 26943623 -111550911#3 -111550911#2 -111550911#1 -111550911#0 -88559680#5 255330036#10 255330036#11 255330036#12 -174822357#0 43100047#0 43100047#2"/>
            <route replacedOnEdge="43100047#2" replacedOnIndex="16" reason="traci:changeTarget" replacedAtTime="18775.00" probability="0" edges="123867455 8920391#0 255330048 255351721#0 -27656675 26943623 -111550911#3 -111550911#2 -111550911#1 -111550911#0 -88559680#5 255330036#10 255330036#11 255330036#12 -174822357#0 43100047#0 43100047#2 43100047#3"/>
            <route edges="123867455 8920391#0 255330048 255351721#0 -27656675 26943623 -111550911#3 -111550911#2 -111550911#1 -111550911#0 -88559680#5 255330036#10 255330036#11 255330036#12 -174822357#0 43100047#0 43100047#2 43100047#3 8917778 174822357#0 -255330036#12 -255330036#11 -255330036#10 88559680#5 224384059#0 8920394#1 27145438#0 255330047#0 30454437 gneE21 123867455"/>
        </routeDistribution>
        <stop parkingArea="parkingArea_43100047#2_0_406" duration="3.00" parking="1"/>
    </vehicle>

    <vehicle id="14" type="vecType" depart="18042.00" arrival="19242.00">
        <routeDistribution>
            <route replacedOnEdge="255330036#10" replacedOnIndex="11" reason="traci:setRoute" replacedAtTime="18907.00" probability="0" edges="123867455 8920391#0 255330048 255351721#0 -27656675 26943623 -111550911#3 -111550911#2 -111550911#1 -111550911#0 -88559680#5 255330036#10 255330036#11"/>