<?xml version="1.0" encoding="UTF-8"?>

<!-- generated on 2022-12-24 13:09:17 by Eclipse SUMO sumo Version 1.14.1
<configuration xmlns:xsi="http://www.w3.org/2001/XMLSchema-instance" xsi:noNamespaceSchemaLocation="http://sumo.dlr.de/xsd/sumoConfiguration.xsd">

    <input>
        <net-file value="./strategia1_config/../san_francisco.net.xml"/>
        <route-files value="./strategia1_config/../san_francisco.rou.xml"/>
        <additional-files value="./strategia1_config/../san_francisco.poly.xml,./strategia1_config/../parking_capacity_100%25/off_parking_100%25.add.xml,./strategia1_config/../parking_capacity_100%25/on_parking_100%25.add.xml"/>
    </input>

    <output>
        <emission-output value="./strategia1_config/../output/strategia1/100%25/emissions.xml"/>
        <tripinfo-output value="./strategia1_config/../output/strategia1/100%25/tripinfo.xml"/>
        <vehroute-output value="./strategia1_config/../output/strategia1/100%25/vehroute.xml"/>
        <stop-output value="./strategia1_config/../output/strategia1/100%25/stops.xml"/>
        <collision-output value="./strategia1_config/../output/strategia1/100%25/collision.xml"/>
        <statistic-output value="./strategia1_config/../output/strategia1/100%25/statistic.xml"/>
    </output>

    <time>
        <step-length value="1"/>
    </time>

    <processing>
        <ignore-route-errors value="false"/>
    </processing>

    <report>
        <verbose value="true"/>
        <xml-validation value="never"/>
    </report>

    <traci_server>
        <remote-port value="51915"/>
    </traci_server>

    <gui_only>
        <gui-settings-file value="./strategia1_config/../gui-settings.cfg"/>
        <start value="true"/>
    </gui_only>

</configuration>
-->

<routes xmlns:xsi="http://www.w3.org/2001/XMLSchema-instance" xsi:noNamespaceSchemaLocation="http://sumo.dlr.de/xsd/routes_file.xsd">
    <vehicle id="30" type="vecType" depart="18000.00" arrival="18420.00">
        <routeDistribution>
            <route replacedOnEdge="-87297164#3" replacedOnIndex="17" reason="traci:setRoute" replacedAtTime="18142.00" probability="0" edges="-91181760#0 29059494 29059495#0 29059495#3 -133376114#2 30029172#2 27166421#8 24335483#4 -288065247#0 8920093#1 254758127#0 72981813#3 26938338#0 -87297164#7 -87297164#6 -87297164#5 -87297164#4 -87297164#3 206662304#12 206662304#13"/>
            <route replacedOnEdge="206662304#13" replacedOnIndex="19" reason="traci:changeTarget" replacedAtTime="18158.00" probability="0" edges="-91181760#0 29059494 29059495#0 29059495#3 -133376114#2 30029172#2 27166421#8 24335483#4 -288065247#0 8920093#1 254758127#0 72981813#3 26938338#0 -87297164#7 -87297164#6 -87297164#5 -87297164#4 -87297164#3 206662304#12 206662304#13 -206662304#13"/>
            <route edges="-91181760#0 29059494 29059495#0 29059495#3 -133376114#2 30029172#2 27166421#8 24335483#4 -288065247#0 8920093#1 254758127#0 72981813#3 26938338#0 -87297164#7 -87297164#6 -87297164#5 -87297164#4 -87297164#3 206662304#12 206662304#13 -206662304#13 -206662304#12 87297164#3 87297164#4 87297164#5 87297164#6 87297164#7 87297164#8 26938417 26938418#0 26938418#1 26938418#2 -24335483#8 -24335483#6 -24335483#5 -27166421#8 -27166421#7 -27166421#6 -27166421#5 27398045#7 8919058 8916882#0 -91181760#0"/>
        </routeDistribution>
        <stop parkingArea="parkingArea_206662304#13_0_660" duration="100.00" parking="1"/>
    </vehicle>

    <vehicle id="1" type="vecType" depart="18000.00" arrival="18441.00">
        <routeDistribution>
            <route replacedOnEdge="-264874017#5" replacedOnIndex="11" reason="traci:setRoute" replacedAtTime="18113.00" probability="0" edges="31129765 123741465 8915117 8915115#0 8915115#1 254299118#0 254299118#1 254299118#2 254299118#3 -254305050#1 -254305050#0 -264874017#5 8922291#0"/>
            <route replacedOnEdge="8922291#0" replacedOnIndex="12" reason="traci:changeTarget" replacedAtTime="18128.00" probability="0" edges="31129765 123741465 8915117 8915115#0 8915115#1 254299118#0 254299118#1 254299118#2 254299118#3 -254305050#1 -254305050#0 -264874017#5 8922291#0 -214545530#6"/>
            <route edges="31129765 123741465 8915117 8915115#0 8915115#1 254299118#0 254299118#1 254299118#2 254299118#3 -254305050#1 -254305050#0 -264874017#5 8922291#0 214545530#7 143617585#0 143617585#1 143617585#2 254305033#0 254305033#1 254305033#2 254305033#3 254305033#4 254305033#5 8915588 254299122 154966358 gneE27 31129765"/>
        </routeDistribution>
        <stop parkingArea="parkingArea_8922291#0_0_762" duration="100.00" parking="1"/>
    </vehicle>

    <vehicle id="45" type="vecType" depart="18060.00" arrival="18464.00">
        <routeDistribution>
            <route replacedOnEdge="-43100739" replacedOnIndex="12" reason="traci:setRoute" replacedAtTime="18201.00" probability="0" edges="31129765 123741465 8915117 27432609 157812260#7 157812260#8 157812260#9 25657409#10 25657409#11 25657409#12 25657409#13 25657409#14 -43100739"/>
            <route replacedOnEdge="-43100739" replacedOnIndex="12" reason="traci:changeTarget" replacedAtTime="18211.00" probability="0" edges="31129765 123741465 8915117 27432609 157812260#7 157812260#8 157812260#9 25657409#10 25657409#11 25657409#12 25657409#13 25657409#14 -43100739 91181771#19"/>
            <route edges="31129765 123741465 8915117 27432609 157812260#7 157812260#8 157812260#9 25657409#10 25657409#11 25657409#12 25657409#13 25657409#14 -43100739 43100739 25657409#15 43100740 254305033#1 254305033#2 254305033#3 254305033#4 254305033#5 8915588 254299122 154966358 gneE27 31129765"/>
        </routeDistribution>
        <stop parkingArea="parkingArea_-43100739_0_743" duration="100.00" parking="1"/>
    </vehicle>

    <vehicle id="60" type="vecType" depart="18060.00" arrival="18577.00">
        <routeDistribution>
            <route replacedOnEdge="247966218#3" replacedOnIndex="4" reason="traci:setRoute" replacedAtTime="18160.00" probability="0" edges="8916792 28518571#0 28518571#1 157812260#0 247966218#3"/>
            <route replacedOnEdge="247966218#3" replacedOnIndex="4" reason="traci:changeTarget" replacedAtTime="18165.00" probability="0" edges="8916792 28518571#0 28518571#1 157812260#0 247966218#3 247966218#4"/>
            <route edges="8916792 28518571#0 28518571#1 157812260#0 247966218#3 247966218#4 247966218#5 247966218#6 247966218#7 247966218#8 141688972#0 141688972#1 162931811#0 -7373736#0 7373728 -133755923#0 -28518571#1 -28518571#0 -8916792 8916792"/>
        </routeDistribution>
        <stop parkingArea="parkingArea_247966218#3_0_791" duration="100.00" parking="1"/>
    </vehicle>

    <vehicle id="21" type="vecType" depart="18000.00" arrival="18644.00">
        <routeDistribution>
            <route replacedOnEdge="-35675861#1" replacedOnIndex="20" reason="traci:setRoute" replacedAtTime="18282.00" probability="0" edges="27167762 123741465 8915117 8915115#0 8915115#1 254299118#0 254299118#1 254299118#2 254299118#3 254308548#0 254308548#2 186400365 143666207#0 254299117#0 254299117#1 -88559661#2 28842183 -283537644#1 -283537552#1 -283537552#0 -35675861#1 35675861#1"/>
            <route replacedOnEdge="35675861#1" replacedOnIndex="21" reason="traci:changeTarget" replacedAtTime="18326.00" probability="0" edges="27167762 123741465 8915117 8915115#0 8915115#1 254299118#0 254299118#1 254299118#2 254299118#3 254308548#0 254308548#2 186400365 143666207#0 254299117#0 254299117#1 -88559661#2 28842183 -283537644#1 -283537552#1 -283537552#0 -35675861#1 35675861#1 8915351"/>
            <route edges="27167762 123741465 8915117 8915115#0 8915115#1 254299118#0 254299118#1 254299118#2 254299118#3 254308548#0 254308548#2 186400365 143666207#0 254299117#0 254299117#1 -88559661#2 28842183 -283537644#1 -283537552#1 -283537552#0 -35675861#1 35675861#1 283537552#0 283537552#1 283537644#0 283537644#2 88559702#0 88559702#1 88559702#2 25758528#0 25758528#1 8915151 31129732#1 31129732#2 254299122 8915263 gneE20 27167762"/>
        </routeDistribution>
        <stop parkingArea="parkingArea_35675861#1_0_461" duration="100.00" parking="1"/>
    </vehicle>

    <vehicle id="76" type="vecType" depart="18120.00" arrival="18665.00">
        <routeDistribution>
            <route replacedOnEdge="-25371463" replacedOnIndex="14" reason="traci:setRoute" replacedAtTime="18297.00" probability="0" edges="225806031#0 -8918039#0 8922072#0 8922072#1 8918033#0 8918033#1 8918033#2 89624695#0 89624695#2 89624695#3 27029263 -24335439#2 8917500#1 8921849#1 -25371463"/>
            <route replacedOnEdge="-25371463" replacedOnIndex="14" reason="traci:changeTarget" replacedAtTime="18302.00" probability="0" edges="225806031#0 -8918039#0 8922072#0 8922072#1 8918033#0 8918033#1 8918033#2 89624695#0 89624695#2 89624695#3 27029263 -24335439#2 8917500#1 8921849#1 -25371463 25371463"/>
            <route edges="225806031#0 -8918039#0 8922072#0 8922072#1 8918033#0 8918033#1 8918033#2 89624695#0 89624695#2 89624695#3 27029263 -24335439#2 8917500#1 8921849#1 -25371463 25371463 47170567#0 24335439#1 24335439#2 -27029263 -88572874#2 -88572874#1 -88572874#0 88572943#0 88572943#1 8920338 225847523 -225853134 -8922072#1 -8922072#0 8918039#0 8918039#1 254448252#1 gneE13 225806031#0"/>
        </routeDistribution>
        <stop parkingArea="parkingArea_-25371463_0_928" duration="100.00" parking="1"/>
    </vehicle>

    <vehicle id="28" type="vecType" depart="18009.00" arrival="18668.00">
        <routeDistribution>
            <route replacedOnEdge="47172834#0" replacedOnIndex="13" reason="traci:setRoute" replacedAtTime="18291.00" probability="0" edges="90077241 8921938 120813417 31129372 35675861#1 283537552#0 283537552#1 283537644#0 283537644#2 88559661#0 88559661#1 88559680#0 8916551 47172834#0 -8919616#1"/>
            <route replacedOnEdge="-8919616#1" replacedOnIndex="14" reason="traci:setRoute" replacedAtTime="18296.00" probability="0" edges="90077241 8921938 120813417 31129372 35675861#1 283537552#0 283537552#1 283537644#0 283537644#2 88559661#0 88559661#1 88559680#0 8916551 47172834#0 -8919616#1 8919616#1"/>
            <route replacedOnEdge="8919616#1" replacedOnIndex="15" reason="traci:changeTarget" replacedAtTime="18302.00" probability="0" edges="90077241 8921938 120813417 31129372 35675861#1 283537552#0 283537552#1 283537644#0 283537644#2 88559661#0 88559661#1 88559680#0 8916551 47172834#0 -8919616#1 8919616#1 47172834#2"/>
            <route edges="90077241 8921938 120813417 31129372 35675861#1 283537552#0 283537552#1 283537644#0 283537644#2 88559661#0 88559661#1 88559680#0 8916551 47172834#0 -8919616#1 8919616#1 -8919616#1 -8919616#0 254299117#1 88559650 175354957#0 175354957#1 50690291#1 gneE4 90077241"/>
        </routeDistribution>
        <stop parkingArea="parkingArea_8919616#1_0_491" duration="100.00" parking="1"/>
    </vehicle>

    <vehicle id="93" type="vecType" depart="18120.00" arrival="18673.00">
        <routeDistribution>
            <route replacedOnEdge="204967525" replacedOnIndex="24" reason="traci:setRoute" replacedAtTime="18331.00" probability="0" edges="-254758121#2 -254758121#0 -26938418#4 -26938418#3 -26938418#2 -26938418#1 26938293#2 72024282#0 72024282#1 -72981813#3 254758127#1 254758127#2 254758127#3 254758127#4 254758127#5 254758127#6 254758127#8 254758127#10 254758127#12 254758127#13 254758127#14 254758127#15 254758127#16 254758127#17 204967525"/>
            <route replacedOnEdge="204967525" replacedOnIndex="24" reason="traci:setRoute" replacedAtTime="18345.00" probability="0" edges="-254758121#2 -254758121#0 -26938418#4 -26938418#3 -26938418#2 -26938418#1 26938293#2 72024282#0 72024282#1 -72981813#3 254758127#1 254758127#2 254758127#3 254758127#4 254758127#5 254758127#6 254758127#8 254758127#10 254758127#12 254758127#13 254758127#14 254758127#15 254758127#16 254758127#17 204967525 -204967525"/>
            <route replacedOnEdge="-87297168" replacedOnIndex="26" reason="traci:setRoute" replacedAtTime="18361.00" probability="0" edges="-254758121#2 -254758121#0 -26938418#4 -26938418#3 -26938418#2 -26938418#1 26938293#2 72024282#0 72024282#1 -72981813#3 254758127#1 254758127#2 254758127#3 254758127#4 254758127#5 254758127#6 254758127#8 254758127#10 254758127#12 254758127#13 254758127#14 254758127#15 254758127#16 254758127#17 204967525 -204967525 -87297168"/>
            <route replacedOnEdge="-87297168" replacedOnIndex="26" reason="traci:changeTarget" replacedAtTime="18369.00" probability="0" edges="-254758121#2 -254758121#0 -26938418#4 -26938418#3 -26938418#2 -26938418#1 26938293#2 72024282#0 72024282#1 -72981813#3 254758127#1 254758127#2 254758127#3 254758127#4 254758127#5 254758127#6 254758127#8 254758127#10 254758127#12 254758127#13 254758127#14 254758127#15 254758127#16 254758127#17 204967525 -204967525 -87297168 30029867#0"/>
            <route edges="-254758121#2 -254758121#0 -26938418#4 -26938418#3 -26938418#2 -26938418#1 26938293#2 72024282#0 72024282#1 -72981813#3 254758127#1 254758127#2 254758127#3 254758127#4 254758127#5 254758127#6 254758127#8 254758127#10 254758127#12 254758127#13 254758127#14 254758127#15 254758127#16 254758127#17 204967525 -204967525 -87297168 30029867#0 30029878#0 8916768#15 -254758127#16 -254758127#15 -254758127#14 -254758127#13 -254758127#12 -254758127#11 -254758127#9 -254758127#7 206662304#9 206662304#11 87297164#3 87297164#4 87297164#5 87297164#6 87297164#7 87297164#8 26938417 26938418#0 26938418#1 26938418#2 26938418#3 26938418#4 254758121#0 254758121#1 -254758121#2"/>
        </routeDistribution>
        <stop parkingArea="parkingArea_-87297168_0_1209" duration="100.00" parking="1"/>
    </vehicle>

    <vehicle id="74" type="vecType" depart="18120.00" arrival="18720.00">
        <routeDistribution>
            <route replacedOnEdge="254448252#0" replacedOnIndex="8" reason="traci:setRoute" replacedAtTime="18285.00" probability="0" edges="144489137#0 144489137#1 144489137#2 254758122#6 254758122#7 225847522#0 8922164#5 8922164#6 254448252#0 -8918039#1"/>
            <route replacedOnEdge="-8918039#1" replacedOnIndex="9" reason="traci:setRoute" replacedAtTime="18332.00" probability="0" edges="144489137#0 144489137#1 144489137#2 254758122#6 254758122#7 225847522#0 8922164#5 8922164#6 254448252#0 -8918039#1 8918039#1"/>
            <route replacedOnEdge="8918039#1" replacedOnIndex="10" reason="traci:setRoute" replacedAtTime="18344.00" probability="0" edges="144489137#0 144489137#1 144489137#2 254758122#6 254758122#7 225847522#0 8922164#5 8922164#6 254448252#0 -8918039#1 8918039#1 254448252#1"/>
            <route replacedOnEdge="254448252#1" replacedOnIndex="11" reason="traci:changeTarget" replacedAtTime="18373.00" probability="0" edges="144489137#0 144489137#1 144489137#2 254758122#6 254758122#7 225847522#0 8922164#5 8922164#6 254448252#0 -8918039#1 8918039#1 254448252#1 gneE13"/>
            <route edges="144489137#0 144489137#1 144489137#2 254758122#6 254758122#7 225847522#0 8922164#5 8922164#6 254448252#0 -8918039#1 8918039#1 254448252#1 gneE13 225806031#0 8918039#1 8918039#2 225847513 254448249#0 254448249#2 254448249#4 91181767 gneE12 144489137#0"/>
        </routeDistribution>
        <stop parkingArea="parkingArea_254448252#1_0_351" duration="100.00" parking="1"/>
    </vehicle>

    <vehicle id="10" type="vecType" depart="18000.00" arrival="18730.00">
        <routeDistribution>
            <route replacedOnEdge="47172745" replacedOnIndex="7" reason="traci:setRoute" replacedAtTime="18240.00" probability="0" edges="90077241 8921938 110361656 111319423 27397919 179235243#1 364480068#1 47172745 91181771#0"/>
            <route replacedOnEdge="91181771#0" replacedOnIndex="8" reason="traci:changeTarget" replacedAtTime="18288.00" probability="0" edges="90077241 8921938 110361656 111319423 27397919 179235243#1 364480068#1 47172745 91181771#0 91181771#3"/>
            <route edges="90077241 8921938 110361656 111319423 27397919 179235243#1 364480068#1 47172745 91181771#0 88559691#4 225518502#0 329607867 27772070 202317709 50690291#0 50690291#1 gneE4 90077241"/>
        </routeDistribution>
        <stop parkingArea="parkingArea_91181771#0_0_77" duration="100.00" parking="1"/>
    </vehicle>

    <vehicle id="49" type="vecType" depart="18063.00" arrival="18744.00">
        <routeDistribution>
            <route replacedOnEdge="31129732#0" replacedOnIndex="15" reason="traci:setRoute" replacedAtTime="18501.00" probability="0" edges="31129765 123741465 123741454#0 123741454#1 123741454#2 123741454#3 123741452 202317709 50690291#0 50690291#1 gneE4 90077241 8921938 120813417 202485364 31129732#0"/>
            <route replacedOnEdge="31129732#0" replacedOnIndex="15" reason="traci:changeTarget" replacedAtTime="18511.00" probability="0" edges="31129765 123741465 123741454#0 123741454#1 123741454#2 123741454#3 123741452 202317709 50690291#0 50690291#1 gneE4 90077241 8921938 120813417 202485364 31129732#0 31129732#1"/>
            <route edges="31129765 123741465 123741454#0 123741454#1 123741454#2 123741454#3 123741452 202317709 50690291#0 50690291#1 gneE4 90077241 8921938 120813417 202485364 31129732#0 31129732#1 31129732#2 254299122 154966358 gneE27 31129765"/>
        </routeDistribution>
        <stop parkingArea="parkingArea_31129732#0_0_532" duration="100.00" parking="1"/>
    </vehicle>

    <vehicle id="16" type="vecType" depart="18006.00" arrival="18779.00">
        <routeDistribution>
            <route replacedOnEdge="283537644#2" replacedOnIndex="8" reason="traci:setRoute" replacedAtTime="18229.00" probability="0" edges="90077241 8921938 120813417 31129372 35675861#1 283537552#0 283537552#1 283537644#0 283537644#2 -225518512#1"/>
            <route replacedOnEdge="-225518512#1" replacedOnIndex="9" reason="traci:changeTarget" replacedAtTime="18279.00" probability="0" edges="90077241 8921938 120813417 31129372 35675861#1 283537552#0 283537552#1 283537644#0 283537644#2 -225518512#1 225518502#0"/>
            <route edges="90077241 8921938 120813417 31129372 35675861#1 283537552#0 283537552#1 283537644#0 283537644#2 -225518512#1 225518502#0 329607867 27772070 202317709 50690291#0 50690291#1 gneE4 90077241"/>
        </routeDistribution>
        <stop parkingArea="parkingArea_-225518512#1_0_517" duration="100.00" parking="1"/>
    </vehicle>

    <vehicle id="33" type="vecType" depart="18000.00" arrival="18780.00">
        <routeDistribution>
            <route replacedOnEdge="224316522#0" replacedOnIndex="15" reason="traci:setRoute" replacedAtTime="18326.00" probability="0" edges="144489137#0 144489137#1 144489137#2 144489137#3 144489137#7 254758131#0 254758131#2 254758132#0 254758132#2 290052332#1 290052332#4 -144489136 -204884397 88597544#0 88597544#2 224316522#0"/>
            <route replacedOnEdge="224316522#0" replacedOnIndex="15" reason="traci:changeTarget" replacedAtTime="18332.00" probability="0" edges="144489137#0 144489137#1 144489137#2 144489137#3 144489137#7 254758131#0 254758131#2 254758132#0 254758132#2 290052332#1 290052332#4 -144489136 -204884397 88597544#0 88597544#2 224316522#0 133733590#0"/>
            <route edges="144489137#0 144489137#1 144489137#2 144489137#3 144489137#7 254758131#0 254758131#2 254758132#0 254758132#2 290052332#1 290052332#4 -144489136 -204884397 88597544#0 88597544#2 224316522#0 133733590#0 204884387#0 144489134#0 144489134#2 144489134#3 290080809#0 290080809#4 84734271#1 84734271#2 84734271#3 84734271#5 84734271#6 84734271#7 91181767 gneE12 144489137#0"/>
        </routeDistribution>
        <stop parkingArea="parkingArea_224316522#0_0_572" duration="100.00" parking="1"/>
    </vehicle>

    <vehicle id="47" type="vecType" depart="18060.00" arrival="18793.00">
        <routeDistribution>
            <route replacedOnEdge="-225432462#1" replacedOnIndex="7" reason="traci:setRoute" replacedAtTime="18291.00" probability="0" edges="90077241 8921938 110361656 111319423 27397919 179235243#1 364480068#1 -225432462#1 225432462#0"/>
            <route replacedOnEdge="225432462#0" replacedOnIndex="8" reason="traci:changeTarget" replacedAtTime="18300.00" probability="0" edges="90077241 8921938 110361656 111319423 27397919 179235243#1 364480068#1 -225432462#1 225432462#0 47172745"/>
            <route edges="90077241 8921938 110361656 111319423 27397919 179235243#1 364480068#1 -225432462#1 225432462#0 47172745 91181770#0 283537380#0 283537380#1 283537380#2 8915351 50690291#0 50690291#1 gneE4 90077241"/>
        </routeDistribution>
        <stop parkingArea="parkingArea_225432462#0_0_60" duration="100.00" parking="1"/>
    </vehicle>

    <vehicle id="36" type="vecType" depart="18009.00" arrival="18794.00">
        <routeDistribution>
            <route replacedOnEdge="255330036#10" replacedOnIndex="11" reason="traci:setRoute" replacedAtTime="18375.00" probability="0" edges="123867455 8920391#0 255330048 255351721#0 -27656675 26943623 -111550911#3 -111550911#2 -111550911#1 -111550911#0 -88559680#5 255330036#10 255330036#11"/>
            <route replacedOnEdge="255330036#11" replacedOnIndex="12" reason="traci:setRoute" replacedAtTime="18380.00" probability="0" edges="123867455 8920391#0 255330048 255351721#0 -27656675 26943623 -111550911#3 -111550911#2 -111550911#1 -111550911#0 -88559680#5 255330036#10 255330036#11 255330036#12"/>
            <route replacedOnEdge="255330036#13" replacedOnIndex="14" reason="traci:setRoute" replacedAtTime="18398.00" probability="0" edges="123867455 8920391#0 255330048 255351721#0 -27656675 26943623 -111550911#3 -111550911#2 -111550911#1 -111550911#0 -88559680#5 255330036#10 255330036#11 255330036#12 255330036#13"/>
            <route replacedOnEdge="255330036#13" replacedOnIndex="14" reason="traci:changeTarget" replacedAtTime="18412.00" probability="0" edges="123867455 8920391#0 255330048 255351721#0 -27656675 26943623 -111550911#3 -111550911#2 -111550911#1 -111550911#0 -88559680#5 255330036#10 255330036#11 255330036#12 255330036#13 255330057#0"/>
            <route edges="123867455 8920391#0 255330048 255351721#0 -27656675 26943623 -111550911#3 -111550911#2 -111550911#1 -111550911#0 -88559680#5 255330036#10 255330036#11 255330036#12 255330036#13 255330057#0 8920394#0 8920394#1 27145438#0 255330047#0 30454437 gneE21 123867455"/>
        </routeDistribution>
        <stop parkingArea="parkingArea_255330036#13_0_94" duration="100.00" parking="1"/>
    </vehicle>

    <vehicle id="31" type="vecType" depart="18006.00" arrival="18807.00">
        <routeDistribution>
            <route replacedOnEdge="-111089307#4" replacedOnIndex="19" reason="traci:setRoute" replacedAtTime="18476.00" probability="0" edges="123867455 8920391#0 255330048 255351748 -26943653#1 -143617589#6 143617589#3 -143617587 -133755923#1 -133755923#0 157812260#0 -247966218#2 -26943758#1 162931810 256787755#0 254299121#8 254299121#9 25758513 27029200#0 -111089307#4 111089307#4"/>
            <route replacedOnEdge="111089307#4" replacedOnIndex="20" reason="traci:changeTarget" replacedAtTime="18486.00" probability="0" edges="123867455 8920391#0 255330048 255351748 -26943653#1 -143617589#6 143617589#3 -143617587 -133755923#1 -133755923#0 157812260#0 -247966218#2 -26943758#1 162931810 256787755#0 254299121#8 254299121#9 25758513 27029200#0 -111089307#4 111089307#4 -27029200#1"/>
            <route edges="123867455 8920391#0 255330048 255351748 -26943653#1 -143617589#6 143617589#3 -143617587 -133755923#1 -133755923#0 157812260#0 -247966218#2 -26943758#1 162931810 256787755#0 254299121#8 254299121#9 25758513 27029200#0 -111089307#4 111089307#4 -27029200#1 -25758513 27029265#3 186400366#0 186400366#1 186400366#2 247960234#1 247966218#0 247966218#3 247966218#4 247966218#5 247966218#6 247966218#7 247966218#8 8918874 gneE21 123867455"/>
        </routeDistribution>
        <stop parkingArea="parkingArea_111089307#4_0_960" duration="100.00" parking="1"/>
    </vehicle>

    <vehicle id="68" type="vecType" depart="18060.00" arrival="18807.00">
        <routeDistribution>
            <route replacedOnEdge="-35675861#0" replacedOnIndex="21" reason="traci:setRoute" replacedAtTime="18417.00" probability="0" edges="27167762 123741465 8915117 8915115#0 8915115#1 254299118#0 254299118#1 254299118#2 254299118#3 254308548#0 254308548#2 186400365 143666207#0 254299117#0 254299117#1 -88559661#2 28842183 -283537644#1 -283537552#1 -283537552#0 -35675861#1 -35675861#0 35675861#0"/>
            <route replacedOnEdge="35675861#0" replacedOnIndex="22" reason="traci:changeTarget" replacedAtTime="18423.00" probability="0" edges="27167762 123741465 8915117 8915115#0 8915115#1 254299118#0 254299118#1 254299118#2 254299118#3 254308548#0 254308548#2 186400365 143666207#0 254299117#0 254299117#1 -88559661#2 28842183 -283537644#1 -283537552#1 -283537552#0 -35675861#1 -35675861#0 35675861#0 35675861#1"/>
            <route edges="27167762 123741465 8915117 8915115#0 8915115#1 254299118#0 254299118#1 254299118#2 254299118#3 254308548#0 254308548#2 186400365 143666207#0 254299117#0 254299117#1 -88559661#2 28842183 -283537644#1 -283537552#1 -283537552#0 -35675861#1 -35675861#0 35675861#0 35675861#1 283537552#0 283537552#1 283537644#0 283537644#2 88559702#0 88559702#1 88559702#2 25758528#0 25758528#1 8915151 31129732#1 31129732#2 254299122 8915263 gneE20 27167762"/>
        </routeDistribution>
        <stop parkingArea="parkingArea_35675861#0_0_89" duration="100.00" parking="1"/>
    </vehicle>

    <vehicle id="116" type="vecType" depart="18240.00" arrival="18835.00">
        <route edges="48211196#5 -48211196#6 30029878#5 30029878#6 30029878#7 30029878#8 30029878#10 30029878#11 30029878#12 30029878#13 30029878#14 30029878#15 288065247#0 -24335483#5 -27166421#8 -27166421#7 -27166421#6 -27166421#5 27398045#7 8919058 8916882#0 -91181760#0 27166466#0 27166466#2 27166466#3 254297761#0 254297761#2 254297761#4 254758128#0 254758128#1 254448247#0 -85789165 85789166#0 88572895#0 214545530#0 214545530#3 214545530#4 214545530#7 143617593 254758139#0 254758139#1 162931811#0 -7373736#0 7373728 -133755923#0 -28518571#1 -28518571#0 -8916792"/>
    </vehicle>

    <vehicle id="13" type="vecType" depart="18003.00" arrival="18837.00">
        <routeDistribution>
            <route replacedOnEdge="91181771#5" replacedOnIndex="11" reason="traci:setRoute" replacedAtTime="18367.00" probability="0" edges="90077241 8921938 110361656 111319423 27397919 179235243#1 364480068#1 47172745 91181771#0 91181771#3 91181771#4 91181771#5"/>
            <route replacedOnEdge="91181771#5" replacedOnIndex="11" reason="traci:changeTarget" replacedAtTime="18374.00" probability="0" edges="90077241 8921938 110361656 111319423 27397919 179235243#1 364480068#1 47172745 91181771#0 91181771#3 91181771#4 91181771#5 91181771#6"/>
            <route edges="90077241 8921938 110361656 111319423 27397919 179235243#1 364480068#1 47172745 91181771#0 91181771#3 91181771#4 91181771#5 254299142#11 -88572965#1 -88572965#0 -88559669 88559691#0 88559691#4 225518502#0 329607867 27772070 202317709 50690291#0 50690291#1 gneE4 90077241"/>
        </routeDistribution>
        <stop parkingArea="parkingArea_91181771#5_0_513" duration="100.00" parking="1"/>
    </vehicle>

    <vehicle id="20" type="vecType" depart="18000.00" arrival="18838.00">
        <routeDistribution>
            <route replacedOnEdge="91181771#5" replacedOnIndex="19" reason="traci:setRoute" replacedAtTime="18395.00" probability="0" edges="123867455 8920391#0 255330048 255351721#0 -27656675 26943623 133735130#0 255330036#7 -8919615#1 -8919615#0 8916553#1 -8916551 -88559680#2 -88559661#2 -88559661#0 -225518512#1 -88559691#6 91181771#3 91181771#4 91181771#5"/>
            <route replacedOnEdge="91181771#5" replacedOnIndex="19" reason="traci:changeTarget" replacedAtTime="18402.00" probability="0" edges="123867455 8920391#0 255330048 255351721#0 -27656675 26943623 133735130#0 255330036#7 -8919615#1 -8919615#0 8916553#1 -8916551 -88559680#2 -88559661#2 -88559661#0 -225518512#1 -88559691#6 91181771#3 91181771#4 91181771#5 91181771#6"/>
            <route edges="123867455 8920391#0 255330048 255351721#0 -27656675 26943623 133735130#0 255330036#7 -8919615#1 -8919615#0 8916553#1 -8916551 -88559680#2 -88559661#2 -88559661#0 -225518512#1 -88559691#6 91181771#3 91181771#4 91181771#5 91181771#6 283534317#2 283534317#5 283534317#6 283534317#8 143617591 107674371#0 107674371#1 107674372#0 255330069#0 255330069#1 26943653#0 255330047#0 30454437 gneE21 123867455"/>
        </routeDistribution>
        <stop parkingArea="parkingArea_91181771#5_0_513" duration="100.00" parking="1"/>
    </vehicle>

    <vehicle id="63" type="vecType" depart="18063.00" arrival="18839.00">
        <routeDistribution>
            <route replacedOnEdge="27054213#0" replacedOnIndex="28" reason="traci:setRoute" replacedAtTime="18368.00" probability="0" edges="-204967525 -87297168 30029867#0 30029867#1 30029867#2 -30029708#2 -30029708#1 -30029708#0 30030100#0 30030100#2 148846995 148846996#0 148846996#1 148846996#2 -48211487#2 -48211487#1 -48211487#0 48211960 87376672#0 87376672#1 -91185877#1 -91185877#0 -254971056#1 -8922640#1 27054205#0 27054205#1 27054209#0 254971055 27054213#0 224199018#4"/>
            <route replacedOnEdge="224199018#4" replacedOnIndex="29" reason="traci:changeTarget" replacedAtTime="18412.00" probability="0" edges="-204967525 -87297168 30029867#0 30029867#1 30029867#2 -30029708#2 -30029708#1 -30029708#0 30030100#0 30030100#2 148846995 148846996#0 148846996#1 148846996#2 -48211487#2 -48211487#1 -48211487#0 48211960 87376672#0 87376672#1 -91185877#1 -91185877#0 -254971056#1 -8922640#1 27054205#0 27054205#1 27054209#0 254971055 27054213#0 224199018#4 254756526#0"/>