<?xml version="1.0" encoding="UTF-8"?>

<!-- generated on 2022-12-14 14:07:07 by Eclipse SUMO sumo Version 1.14.1
<configuration xmlns:xsi="http://www.w3.org/2001/XMLSchema-instance" xsi:noNamespaceSchemaLocation="http://sumo.dlr.de/xsd/sumoConfiguration.xsd">

    <input>
        <net-file value="./strategia1_config/../san_francisco.net.xml"/>
        <route-files value="./strategia1_config/../san_francisco.rou.xml"/>
        <additional-files value="./strategia1_config/../san_francisco.poly.xml,./strategia1_config/../parking_capacity_100%25/off_parking_100%25.add.xml,./strategia1_config/../parking_capacity_100%25/on_parking_100%25.add.xml"/>
    </input>

    <output>
        <emission-output value="./strategia1_config/../output/strategia1/100%25/emissions.xml"/>
        <tripinfo-output value="./strategia1_config/../output/strategia1/100%25/tripinfo.xml"/>
        <vehroute-output value="./strategia1_config/../output/strategia1/100%25/vehroute.xml"/>
        <stop-output value="./strategia1_config/../output/strategia1/100%25/stops.xml"/>
        <collision-output value="./strategia1_config/../output/strategia1/100%25/collision.xml"/>
        <statistic-output value="./strategia1_config/../output/strategia1/100%25/statistic.xml"/>
    </output>

    <time>
        <step-length value="1"/>
    </time>

    <processing>
        <ignore-route-errors value="false"/>
        <time-to-teleport value="-1"/>
    </processing>

    <report>
        <verbose value="true"/>
        <xml-validation value="never"/>
    </report>

    <traci_server>
        <remote-port value="51496"/>
    </traci_server>

    <gui_only>
        <gui-settings-file value="./strategia1_config/../gui-settings.cfg"/>
        <start value="true"/>
    </gui_only>

</configuration>
-->

<routes xmlns:xsi="http://www.w3.org/2001/XMLSchema-instance" xsi:noNamespaceSchemaLocation="http://sumo.dlr.de/xsd/routes_file.xsd">
    <vehicle id="30" type="vecType" depart="18000.00" arrival="18341.00">
        <routeDistribution>
            <route replacedOnEdge="206662304#13" replacedOnIndex="19" reason="traci:changeTarget" replacedAtTime="18158.00" probability="0" edges="-91181760#0 29059494 29059495#0 29059495#3 -133376114#2 30029172#2 27166421#8 24335483#4 -288065247#0 8920093#1 254758127#0 72981813#3 26938338#0 -87297164#7 -87297164#6 -87297164#5 -87297164#4 -87297164#3 206662304#12 206662304#13"/>
            <route edges="-91181760#0 29059494 29059495#0 29059495#3 -133376114#2 30029172#2 27166421#8 24335483#4 -288065247#0 8920093#1 254758127#0 72981813#3 26938338#0 -87297164#7 -87297164#6 -87297164#5 -87297164#4 -87297164#3 206662304#12 206662304#13 -206662304#13 -206662304#12 87297164#3 87297164#4 87297164#5 87297164#6 87297164#7 87297164#8 26938417 26938418#0 26938418#1 26938418#2 -24335483#8 -24335483#6 -24335483#5 -27166421#8 -27166421#7 -27166421#6 -27166421#5 27398045#7 8919058 8916882#0 -91181760#0"/>
        </routeDistribution>
        <stop parkingArea="parkingArea_206662304#13_0_660" duration="20.00" parking="1"/>
    </vehicle>

    <vehicle id="1" type="vecType" depart="18000.00" arrival="18352.00">
        <routeDistribution>
            <route replacedOnEdge="8922291#0" replacedOnIndex="12" reason="traci:changeTarget" replacedAtTime="18128.00" probability="0" edges="31129765 123741465 8915117 8915115#0 8915115#1 254299118#0 254299118#1 254299118#2 254299118#3 -254305050#1 -254305050#0 -264874017#5 8922291#0"/>
            <route edges="31129765 123741465 8915117 8915115#0 8915115#1 254299118#0 254299118#1 254299118#2 254299118#3 -254305050#1 -254305050#0 -264874017#5 8922291#0 214545530#7 143617585#0 143617585#1 143617585#2 254305033#0 254305033#1 254305033#2 254305033#3 254305033#4 254305033#5 8915588 254299122 154966358 gneE27 31129765"/>
        </routeDistribution>
        <stop parkingArea="parkingArea_8922291#0_0_762" duration="20.00" parking="1"/>
    </vehicle>

    <vehicle id="45" type="vecType" depart="18060.00" arrival="18384.00">
        <routeDistribution>
            <route replacedOnEdge="-43100739" replacedOnIndex="12" reason="traci:changeTarget" replacedAtTime="18211.00" probability="0" edges="31129765 123741465 8915117 27432609 157812260#7 157812260#8 157812260#9 25657409#10 25657409#11 25657409#12 25657409#13 25657409#14 -43100739"/>
            <route edges="31129765 123741465 8915117 27432609 157812260#7 157812260#8 157812260#9 25657409#10 25657409#11 25657409#12 25657409#13 25657409#14 -43100739 43100739 25657409#15 43100740 254305033#1 254305033#2 254305033#3 254305033#4 254305033#5 8915588 254299122 154966358 gneE27 31129765"/>
        </routeDistribution>
        <stop parkingArea="parkingArea_-43100739_0_743" duration="20.00" parking="1"/>
    </vehicle>

    <vehicle id="60" type="vecType" depart="18060.00" arrival="18488.00">
        <routeDistribution>
            <route replacedOnEdge="247966218#3" replacedOnIndex="4" reason="traci:changeTarget" replacedAtTime="18165.00" probability="0" edges="8916792 28518571#0 28518571#1 157812260#0 247966218#3"/>
            <route edges="8916792 28518571#0 28518571#1 157812260#0 247966218#3 247966218#4 247966218#5 247966218#6 247966218#7 247966218#8 141688972#0 141688972#1 162931811#0 -7373736#0 7373728 -133755923#0 -28518571#1 -28518571#0 -8916792 8916792"/>
        </routeDistribution>
        <stop parkingArea="parkingArea_247966218#3_0_791" duration="20.00" parking="1"/>
    </vehicle>

    <vehicle id="74" type="vecType" depart="18120.00" arrival="18540.00">
        <routeDistribution>
            <route replacedOnEdge="254448252#0" replacedOnIndex="8" reason="traci:setRoute" replacedAtTime="18285.00" probability="0" edges="144489137#0 144489137#1 144489137#2 254758122#6 254758122#7 225847522#0 8922164#5 8922164#6 254448252#0 -8918039#1"/>
            <route replacedOnEdge="225806031#2" replacedOnIndex="10" reason="traci:changeTarget" replacedAtTime="18340.00" probability="0" edges="144489137#0 144489137#1 144489137#2 254758122#6 254758122#7 225847522#0 8922164#5 8922164#6 254448252#0 -8918039#1 225806031#2"/>
            <route edges="144489137#0 144489137#1 144489137#2 254758122#6 254758122#7 225847522#0 8922164#5 8922164#6 254448252#0 -8918039#1 225806031#2 254759936 254448248 254448249#0 254448249#2 254448249#4 91181767 gneE12 144489137#0"/>
        </routeDistribution>
        <stop parkingArea="parkingArea_225806031#2_0_677" duration="20.00" parking="1"/>
    </vehicle>

    <vehicle id="76" type="vecType" depart="18120.00" arrival="18576.00">
        <routeDistribution>
            <route replacedOnEdge="-25371463" replacedOnIndex="14" reason="traci:changeTarget" replacedAtTime="18301.00" probability="0" edges="225806031#0 -8918039#0 8922072#0 8922072#1 8918033#0 8918033#1 8918033#2 89624695#0 89624695#2 89624695#3 27029263 -24335439#2 8917500#1 8921849#1 -25371463"/>
            <route edges="225806031#0 -8918039#0 8922072#0 8922072#1 8918033#0 8918033#1 8918033#2 89624695#0 89624695#2 89624695#3 27029263 -24335439#2 8917500#1 8921849#1 -25371463 25371463 47170567#0 24335439#1 24335439#2 -27029263 -88572874#2 -88572874#1 -88572874#0 88572943#0 88572943#1 8920338 225847523 -225853134 -8922072#1 -8922072#0 8918039#0 8918039#1 254448252#1 gneE13 225806031#0"/>
        </routeDistribution>
        <stop parkingArea="parkingArea_-25371463_0_928" duration="20.00" parking="1"/>
    </vehicle>

    <vehicle id="28" type="vecType" depart="18009.00" arrival="18579.00">
        <routeDistribution>
            <route replacedOnEdge="47172834#0" replacedOnIndex="13" reason="traci:setRoute" replacedAtTime="18292.00" probability="0" edges="90077241 8921938 120813417 31129372 35675861#1 283537552#0 283537552#1 283537644#0 283537644#2 88559661#0 88559661#1 88559680#0 8916551 47172834#0 -8919616#1"/>
            <route replacedOnEdge="-8919616#1" replacedOnIndex="14" reason="traci:setRoute" replacedAtTime="18296.00" probability="0" edges="90077241 8921938 120813417 31129372 35675861#1 283537552#0 283537552#1 283537644#0 283537644#2 88559661#0 88559661#1 88559680#0 8916551 47172834#0 -8919616#1 -8919616#0"/>
            <route replacedOnEdge="254299117#1" replacedOnIndex="16" reason="traci:changeTarget" replacedAtTime="18308.00" probability="0" edges="90077241 8921938 120813417 31129372 35675861#1 283537552#0 283537552#1 283537644#0 283537644#2 88559661#0 88559661#1 88559680#0 8916551 47172834#0 -8919616#1 -8919616#0 254299117#1"/>
            <route edges="90077241 8921938 120813417 31129372 35675861#1 283537552#0 283537552#1 283537644#0 283537644#2 88559661#0 88559661#1 88559680#0 8916551 47172834#0 -8919616#1 -8919616#0 254299117#1 88559650 175354957#0 175354957#1 50690291#1 gneE4 90077241"/>
        </routeDistribution>
        <stop parkingArea="parkingArea_254299117#1_0_500" duration="20.00" parking="1"/>
    </vehicle>

    <vehicle id="93" type="vecType" depart="18120.00" arrival="18663.00">
        <routeDistribution>
            <route replacedOnEdge="204967525" replacedOnIndex="24" reason="traci:setRoute" replacedAtTime="18330.00" probability="0" edges="-254758121#2 -254758121#0 -26938418#4 -26938418#3 -26938418#2 -26938418#1 26938293#2 72024282#0 72024282#1 -72981813#3 254758127#1 254758127#2 254758127#3 254758127#4 254758127#5 254758127#6 254758127#8 254758127#10 254758127#12 254758127#13 254758127#14 254758127#15 254758127#16 254758127#17 204967525"/>
            <route replacedOnEdge="204967525" replacedOnIndex="24" reason="traci:setRoute" replacedAtTime="18344.00" probability="0" edges="-254758121#2 -254758121#0 -26938418#4 -26938418#3 -26938418#2 -26938418#1 26938293#2 72024282#0 72024282#1 -72981813#3 254758127#1 254758127#2 254758127#3 254758127#4 254758127#5 254758127#6 254758127#8 254758127#10 254758127#12 254758127#13 254758127#14 254758127#15 254758127#16 254758127#17 204967525 -204967525"/>
            <route replacedOnEdge="-87297168" replacedOnIndex="26" reason="traci:changeTarget" replacedAtTime="18370.00" probability="0" edges="-254758121#2 -254758121#0 -26938418#4 -26938418#3 -26938418#2 -26938418#1 26938293#2 72024282#0 72024282#1 -72981813#3 254758127#1 254758127#2 254758127#3 254758127#4 254758127#5 254758127#6 254758127#8 254758127#10 254758127#12 254758127#13 254758127#14 254758127#15 254758127#16 254758127#17 204967525 -204967525 -87297168"/>
            <route edges="-254758121#2 -254758121#0 -26938418#4 -26938418#3 -26938418#2 -26938418#1 26938293#2 72024282#0 72024282#1 -72981813#3 254758127#1 254758127#2 254758127#3 254758127#4 254758127#5 254758127#6 254758127#8 254758127#10 254758127#12 254758127#13 254758127#14 254758127#15 254758127#16 254758127#17 204967525 -204967525 -87297168 30029867#0 30029878#0 8916768#15 -254758127#16 -254758127#15 -254758127#14 -254758127#13 -254758127#12 -254758127#11 -254758127#9 -254758127#7 206662304#9 206662304#11 87297164#3 87297164#4 87297164#5 87297164#6 87297164#7 87297164#8 26938417 26938418#0 26938418#1 26938418#2 26938418#3 26938418#4 254758121#0 254758121#1 -254758121#2"/>
        </routeDistribution>
        <stop parkingArea="parkingArea_-87297168_0_1209" duration="20.00" parking="1"/>
    </vehicle>

    <vehicle id="49" type="vecType" depart="18063.00" arrival="18664.00">
        <routeDistribution>
            <route replacedOnEdge="31129732#0" replacedOnIndex="15" reason="traci:changeTarget" replacedAtTime="18513.00" probability="0" edges="31129765 123741465 123741454#0 123741454#1 123741454#2 123741454#3 123741452 202317709 50690291#0 50690291#1 gneE4 90077241 8921938 120813417 202485364 31129732#0"/>
            <route edges="31129765 123741465 123741454#0 123741454#1 123741454#2 123741454#3 123741452 202317709 50690291#0 50690291#1 gneE4 90077241 8921938 120813417 202485364 31129732#0 31129732#1 31129732#2 254299122 154966358 gneE27 31129765"/>
        </routeDistribution>
        <stop parkingArea="parkingArea_31129732#0_0_532" duration="20.00" parking="1"/>
    </vehicle>

    <vehicle id="114" type="vecType" depart="18240.00" arrival="18679.00">
        <routeDistribution>
            <route replacedOnEdge="-377646101#2" replacedOnIndex="10" reason="traci:setRoute" replacedAtTime="18420.00" probability="0" edges="-254758120#3 -254758120#2 -254758120#1 -254758120#0 254758126#0 144489137#7 254758131#0 254758131#2 254758132#0 -30832504 -377646101#2 228202845#2"/>
            <route replacedOnEdge="228202845#2" replacedOnIndex="11" reason="traci:setRoute" replacedAtTime="18459.00" probability="0" edges="-254758120#3 -254758120#2 -254758120#1 -254758120#0 254758126#0 144489137#7 254758131#0 254758131#2 254758132#0 -30832504 -377646101#2 228202845#2 -228202845#2"/>
            <route replacedOnEdge="-228202845#2" replacedOnIndex="12" reason="traci:setRoute" replacedAtTime="18466.00" probability="0" edges="-254758120#3 -254758120#2 -254758120#1 -254758120#0 254758126#0 144489137#7 254758131#0 254758131#2 254758132#0 -30832504 -377646101#2 228202845#2 -228202845#2 228202845#2"/>
            <route replacedOnEdge="-228202845#2" replacedOnIndex="12" reason="traci:setRoute" replacedAtTime="18467.00" probability="0" edges="-254758120#3 -254758120#2 -254758120#1 -254758120#0 254758126#0 144489137#7 254758131#0 254758131#2 254758132#0 -30832504 -377646101#2 228202845#2 -228202845#2 228202845#2 -228202845#2"/>
            <route replacedOnEdge="-228202845#2" replacedOnIndex="12" reason="traci:setRoute" replacedAtTime="18468.00" probability="0" edges="-254758120#3 -254758120#2 -254758120#1 -254758120#0 254758126#0 144489137#7 254758131#0 254758131#2 254758132#0 -30832504 -377646101#2 228202845#2 -228202845#2 228202845#2 -228202845#2 377646101#2"/>
            <route replacedOnEdge="377646101#2" replacedOnIndex="15" reason="traci:setRoute" replacedAtTime="18489.00" probability="0" edges="-254758120#3 -254758120#2 -254758120#1 -254758120#0 254758126#0 144489137#7 254758131#0 254758131#2 254758132#0 -30832504 -377646101#2 228202845#2 -228202845#2 228202845#2 -228202845#2 377646101#2 27400639#0"/>
            <route replacedOnEdge="27400639#1" replacedOnIndex="17" reason="traci:changeTarget" replacedAtTime="18557.00" probability="0" edges="-254758120#3 -254758120#2 -254758120#1 -254758120#0 254758126#0 144489137#7 254758131#0 254758131#2 254758132#0 -30832504 -377646101#2 228202845#2 -228202845#2 228202845#2 -228202845#2 377646101#2 27400639#0 27400639#1"/>
            <route edges="-254758120#3 -254758120#2 -254758120#1 -254758120#0 254758126#0 144489137#7 254758131#0 254758131#2 254758132#0 -30832504 -377646101#2 228202845#2 -228202845#2 228202845#2 -228202845#2 377646101#2 27400639#0 27400639#1 27400639#2 277480564 254758120#0 254758120#1 254758120#2 254758120#3 -254758120#3"/>
        </routeDistribution>
        <stop parkingArea="parkingArea_27400639#1_0_1020" duration="20.00" parking="1"/>
    </vehicle>

    <vehicle id="16" type="vecType" depart="18006.00" arrival="18690.00">
        <routeDistribution>
            <route replacedOnEdge="-225518512#1" replacedOnIndex="9" reason="traci:changeTarget" replacedAtTime="18280.00" probability="0" edges="90077241 8921938 120813417 31129372 35675861#1 283537552#0 283537552#1 283537644#0 283537644#2 -225518512#1"/>
            <route edges="90077241 8921938 120813417 31129372 35675861#1 283537552#0 283537552#1 283537644#0 283537644#2 -225518512#1 225518502#0 329607867 27772070 202317709 50690291#0 50690291#1 gneE4 90077241"/>
        </routeDistribution>
        <stop parkingArea="parkingArea_-225518512#1_0_517" duration="20.00" parking="1"/>
    </vehicle>

    <vehicle id="36" type="vecType" depart="18009.00" arrival="18701.00">
        <routeDistribution>
            <route replacedOnEdge="255330036#10" replacedOnIndex="11" reason="traci:setRoute" replacedAtTime="18374.00" probability="0" edges="123867455 8920391#0 255330048 255351721#0 -27656675 26943623 -111550911#3 -111550911#2 -111550911#1 -111550911#0 -88559680#5 255330036#10 255330036#11"/>
            <route replacedOnEdge="255330036#11" replacedOnIndex="12" reason="traci:setRoute" replacedAtTime="18379.00" probability="0" edges="123867455 8920391#0 255330048 255351721#0 -27656675 26943623 -111550911#3 -111550911#2 -111550911#1 -111550911#0 -88559680#5 255330036#10 255330036#11 255330036#12"/>
            <route replacedOnEdge="255330036#13" replacedOnIndex="14" reason="traci:changeTarget" replacedAtTime="18412.00" probability="0" edges="123867455 8920391#0 255330048 255351721#0 -27656675 26943623 -111550911#3 -111550911#2 -111550911#1 -111550911#0 -88559680#5 255330036#10 255330036#11 255330036#12 255330036#13"/>
            <route edges="123867455 8920391#0 255330048 255351721#0 -27656675 26943623 -111550911#3 -111550911#2 -111550911#1 -111550911#0 -88559680#5 255330036#10 255330036#11 255330036#12 255330036#13 255330057#0 8920394#0 8920394#1 27145438#0 255330047#0 30454437 gneE21 123867455"/>
        </routeDistribution>
        <stop parkingArea="parkingArea_255330036#13_0_94" duration="20.00" parking="1"/>
    </vehicle>

    <vehicle id="21" type="vecType" depart="18000.00" arrival="18710.00">
        <routeDistribution>
            <route replacedOnEdge="-35675861#1" replacedOnIndex="20" reason="traci:setRoute" replacedAtTime="18281.00" probability="0" edges="27167762 123741465 8915117 8915115#0 8915115#1 254299118#0 254299118#1 254299118#2 254299118#3 254308548#0 254308548#2 186400365 143666207#0 254299117#0 254299117#1 -88559661#2 28842183 -283537644#1 -283537552#1 -283537552#0 -35675861#1 35675861#1"/>
            <route replacedOnEdge="35675861#1" replacedOnIndex="21" reason="traci:setRoute" replacedAtTime="18327.00" probability="0" edges="27167762 123741465 8915117 8915115#0 8915115#1 254299118#0 254299118#1 254299118#2 254299118#3 254308548#0 254308548#2 186400365 143666207#0 254299117#0 254299117#1 -88559661#2 28842183 -283537644#1 -283537552#1 -283537552#0 -35675861#1 35675861#1 8915351"/>
            <route replacedOnEdge="8915351" replacedOnIndex="22" reason="traci:setRoute" replacedAtTime="18376.00" probability="0" edges="27167762 123741465 8915117 8915115#0 8915115#1 254299118#0 254299118#1 254299118#2 254299118#3 254308548#0 254308548#2 186400365 143666207#0 254299117#0 254299117#1 -88559661#2 28842183 -283537644#1 -283537552#1 -283537552#0 -35675861#1 35675861#1 8915351 50690291#0"/>
            <route replacedOnEdge="50690291#0" replacedOnIndex="23" reason="traci:changeTarget" replacedAtTime="18380.00" probability="0" edges="27167762 123741465 8915117 8915115#0 8915115#1 254299118#0 254299118#1 254299118#2 254299118#3 254308548#0 254308548#2 186400365 143666207#0 254299117#0 254299117#1 -88559661#2 28842183 -283537644#1 -283537552#1 -283537552#0 -35675861#1 35675861#1 8915351 50690291#0 50690291#1"/>
            <route edges="27167762 123741465 8915117 8915115#0 8915115#1 254299118#0 254299118#1 254299118#2 254299118#3 254308548#0 254308548#2 186400365 143666207#0 254299117#0 254299117#1 -88559661#2 28842183 -283537644#1 -283537552#1 -283537552#0 -35675861#1 35675861#1 8915351 50690291#0 50690291#1 gneE4 90077241 8921938 120813417 202485364 31129732#0 31129732#1 31129732#2 254299122 8915263 gneE20 27167762"/>
        </routeDistribution>
    </vehicle>

    <vehicle id="126" type="vecType" depart="18240.00" arrival="18721.00">
        <routeDistribution>
            <route replacedOnEdge="32931798#3" replacedOnIndex="21" reason="traci:setRoute" replacedAtTime="18709.00" probability="0" edges="-133755930#1 -133755930#0 27041554#0 27041554#1 8922234#0 8922234#2 -255330038#2 -255330038#1 -99231466 27397692 8918460#0 99231463#0 224373751 28319343#0 28319343#1 28319343#2 28319343#3 254756521#0 254756521#3 254756521#5 254756521#6 32931798#3 8922560#0"/>
            <route replacedOnEdge="8922560#0" replacedOnIndex="22" reason="traci:setRoute" replacedAtTime="18710.00" probability="0" edges="-133755930#1 -133755930#0 27041554#0 27041554#1 8922234#0 8922234#2 -255330038#2 -255330038#1 -99231466 27397692 8918460#0 99231463#0 224373751 28319343#0 28319343#1 28319343#2 28319343#3 254756521#0 254756521#3 254756521#5 254756521#6 32931798#3 8922560#0 8922560#1"/>
            <route replacedOnEdge="8922560#1" replacedOnIndex="23" reason="traci:setRoute" replacedAtTime="18721.00" probability="0" edges="-133755930#1 -133755930#0 27041554#0 27041554#1 8922234#0 8922234#2 -255330038#2 -255330038#1 -99231466 27397692 8918460#0 99231463#0 224373751 28319343#0 28319343#1 28319343#2 28319343#3 254756521#0 254756521#3 254756521#5 254756521#6 32931798#3 8922560#0 8922560#1 8922560#3"/>
            <route edges="-133755930#1 -133755930#0 27041554#0 27041554#1 8922234#0 8922234#2 -255330038#2 -255330038#1 -99231466 27397692 8918460#0 99231463#0 224373751 28319343#0 28319343#1 28319343#2 28319343#3 254756521#0 254756521#3 254756521#5 254756521#6 32931798#3 8922560#0 8922560#1 8922560#3 8922560#4"/>
        </routeDistribution>
    </vehicle>

    <vehicle id="63" type="vecType" depart="18063.00" arrival="18749.00">
        <routeDistribution>
            <route replacedOnEdge="224199018#4" replacedOnIndex="29" reason="traci:changeTarget" replacedAtTime="18413.00" probability="0" edges="-204967525 -87297168 30029867#0 30029867#1 30029867#2 -30029708#2 -30029708#1 -30029708#0 30030100#0 30030100#2 148846995 148846996#0 148846996#1 148846996#2 -48211487#2 -48211487#1 -48211487#0 48211960 87376672#0 87376672#1 -91185877#1 -91185877#0 -254971056#1 -8922640#1 27054205#0 27054205#1 27054209#0 254971055 27054213#0 224199018#4"/>
            <route edges="-204967525 -87297168 30029867#0 30029867#1 30029867#2 -30029708#2 -30029708#1 -30029708#0 30030100#0 30030100#2 148846995 148846996#0 148846996#1 148846996#2 -48211487#2 -48211487#1 -48211487#0 48211960 87376672#0 87376672#1 -91185877#1 -91185877#0 -254971056#1 -8922640#1 27054205#0 27054205#1 27054209#0 254971055 27054213#0 224199018#4 254756526#0 254971069#0 27054195#0 8922640#0 254971056#0 91185877#0 91185877#1 30030101#0 30030101#1 87376669 48211487#0 48211487#1 48211487#2 48211828 254756518 148874363#0 148874364#0 148874364#1 148874364#3 30029708#0 30029708#1 30029708#2 30029866#0 30029866#2 30029866#3 87297168 204967525 -204967525"/>
        </routeDistribution>
        <stop parkingArea="parkingArea_224199018#4_0_322" duration="20.00" parking="1"/>
    </vehicle>

    <vehicle id="15" type="vecType" depart="18000.00" arrival="18752.00">
        <routeDistribution>
            <route replacedOnEdge="254299142#3" replacedOnIndex="29" reason="traci:changeTarget" replacedAtTime="18422.00" probability="0" edges="-24310636#2 111089307#1 111089307#2 191296172#1 25657409#0 25657409#2 25657409#3 25657409#4 25657409#5 25657409#7 25657409#9 25657409#10 25657409#11 25657409#12 25657409#13 25657409#14 25657409#15 25657409#16 25657409#17 25657409#18 214545530#3 214545530#4 8922291#1 283534317#8 143617591 107674371#0 47172784 254299142#1 254299142#2 254299142#3"/>
            <route edges="-24310636#2 111089307#1 111089307#2 191296172#1 25657409#0 25657409#2 25657409#3 25657409#4 25657409#5 25657409#7 25657409#9 25657409#10 25657409#11 25657409#12 25657409#13 25657409#14 25657409#15 25657409#16 25657409#17 25657409#18 214545530#3 214545530#4 8922291#1 283534317#8 143617591 107674371#0 47172784 254299142#1 254299142#2 254299142#3 255168046#0 8919328#1 88559702#2 25758528#0 25758528#1 8915151 31129732#1 26779355 8915704#0 8915704#1 254299121#6 254299121#8 254299121#9 25758513 27029200#0 -111089307#4 -111089307#3 -111089307#2 -111089307#1 24310636#2 -24310636#2"/>
        </routeDistribution>
        <stop parkingArea="parkingArea_254299142#3_0_508" duration="20.00" parking="1"/>
    </vehicle>

    <vehicle id="20" type="vecType" depart="18000.00" arrival="18759.00">
        <routeDistribution>
            <route replacedOnEdge="91181771#4" replacedOnIndex="18" reason="traci:setRoute" replacedAtTime="18393.00" probability="0" edges="123867455 8920391#0 255330048 255351721#0 -27656675 26943623 133735130#0 255330036#7 -8919615#1 -8919615#0 8916553#1 -8916551 -88559680#2 -88559661#2 -88559661#0 -225518512#1 -88559691#6 91181771#3 91181771#4 91181771#5"/>
            <route replacedOnEdge="91181771#5" replacedOnIndex="19" reason="traci:setRoute" replacedAtTime="18406.00" probability="0" edges="123867455 8920391#0 255330048 255351721#0 -27656675 26943623 133735130#0 255330036#7 -8919615#1 -8919615#0 8916553#1 -8916551 -88559680#2 -88559661#2 -88559661#0 -225518512#1 -88559691#6 91181771#3 91181771#4 91181771#5 91181771#6"/>
            <route replacedOnEdge="91181771#15" replacedOnIndex="21" reason="traci:changeTarget" replacedAtTime="18487.00" probability="0" edges="123867455 8920391#0 255330048 255351721#0 -27656675 26943623 133735130#0 255330036#7 -8919615#1 -8919615#0 8916553#1 -8916551 -88559680#2 -88559661#2 -88559661#0 -225518512#1 -88559691#6 91181771#3 91181771#4 91181771#5 91181771#6 91181771#15"/>
            <route edges="123867455 8920391#0 255330048 255351721#0 -27656675 26943623 133735130#0 255330036#7 -8919615#1 -8919615#0 8916553#1 -8916551 -88559680#2 -88559661#2 -88559661#0 -225518512#1 -88559691#6 91181771#3 91181771#4 91181771#5 91181771#6 91181771#15 91181771#16 264874017#0 264874017#3 264874017#4 264874017#5 254305050#0 254305050#1 254308553 8918874 gneE21 123867455"/>
        </routeDistribution>
        <stop parkingArea="parkingArea_91181771#15_0_723" duration="20.00" parking="1"/>
    </vehicle>

    <vehicle id="39" type="vecType" depart="18006.00" arrival="18764.00">
        <routeDistribution>
            <route replacedOnEdge="-88559661#2" replacedOnIndex="15" reason="traci:setRoute" replacedAtTime="18336.00" probability="0" edges="31129765 123741465 8915117 8915115#0 8915115#1 254299118#0 254299118#1 254299118#2 254299118#3 254308548#0 254308548#2 186400365 143666207#0 254299117#0 254299117#1 -88559661#2 -88559661#0"/>
            <route replacedOnEdge="-225518512#1" replacedOnIndex="17" reason="traci:setRoute" replacedAtTime="18406.00" probability="0" edges="31129765 123741465 8915117 8915115#0 8915115#1 254299118#0 254299118#1 254299118#2 254299118#3 254308548#0 254308548#2 186400365 143666207#0 254299117#0 254299117#1 -88559661#2 -88559661#0 -225518512#1"/>
            <route replacedOnEdge="-225518512#1" replacedOnIndex="17" reason="traci:changeTarget" replacedAtTime="18415.00" probability="0" edges="31129765 123741465 8915117 8915115#0 8915115#1 254299118#0 254299118#1 254299118#2 254299118#3 254308548#0 254308548#2 186400365 143666207#0 254299117#0 254299117#1 -88559661#2 -88559661#0 -225518512#1 225518502#0"/>
            <route edges="31129765 123741465 8915117 8915115#0 8915115#1 254299118#0 254299118#1 254299118#2 254299118#3 254308548#0 254308548#2 186400365 143666207#0 254299117#0 254299117#1 -88559661#2 -88559661#0 -225518512#1 225518512#0 88559702#0 88559702#1 88559702#2 25758528#0 25758528#1 8915151 31129732#1 31129732#2 254299122 154966358 gneE27 31129765"/>
        </routeDistribution>
        <stop parkingArea="parkingArea_-225518512#1_0_517" duration="20.00" parking="1"/>
    </vehicle>

    <vehicle id="47" type="vecType" depart="18060.00" arrival="18771.00">
        <routeDistribution>
            <route replacedOnEdge="-225432462#1" replacedOnIndex="7" reason="traci:setRoute" replacedAtTime="18290.00" probability="0" edges="90077241 8921938 110361656 111319423 27397919 179235243#1 364480068#1 -225432462#1 225432462#0"/>
            <route replacedOnEdge="225432462#0" replacedOnIndex="8" reason="traci:setRoute" replacedAtTime="18302.00" probability="0" edges="90077241 8921938 110361656 111319423 27397919 179235243#1 364480068#1 -225432462#1 225432462#0 47172745"/>
            <route replacedOnEdge="91181771#0" replacedOnIndex="10" reason="traci:setRoute" replacedAtTime="18361.00" probability="0" edges="90077241 8921938 110361656 111319423 27397919 179235243#1 364480068#1 -225432462#1 225432462#0 47172745 91181771#0"/>
            <route replacedOnEdge="91181771#0" replacedOnIndex="10" reason="traci:changeTarget" replacedAtTime="18380.00" probability="0" edges="90077241 8921938 110361656 111319423 27397919 179235243#1 364480068#1 -225432462#1 225432462#0 47172745 91181771#0 91181771#3"/>
            <route edges="90077241 8921938 110361656 111319423 27397919 179235243#1 364480068#1 -225432462#1 225432462#0 47172745 91181771#0 88559691#4 225518502#0 329607867 27772070 202317709 50690291#0 50690291#1 gneE4 90077241"/>
        </routeDistribution>
        <stop parkingArea="parkingArea_91181771#0_0_77" duration="20.00" parking="1"/>
    </vehicle>

    <vehicle id="33" type="vecType" depart="18000.00" arrival="18780.00">
        <routeDistribution>
            <route replacedOnEdge="224316522#0" replacedOnIndex="15" reason="traci:changeTarget" replacedAtTime="18371.00" probability="0" edges="144489137#0 144489137#1 144489137#2 144489137#3 144489137#7 254758131#0 254758131#2 254758132#0 254758132#2 290052332#1 290052332#4 -144489136 -204884397 88597544#0 88597544#2 224316522#0"/>
            <route edges="144489137#0 144489137#1 144489137#2 144489137#3 144489137#7 254758131#0 254758131#2 254758132#0 254758132#2 290052332#1 290052332#4 -144489136 -204884397 88597544#0 88597544#2 224316522#0 133733590#0 204884387#0 144489134#0 144489134#2 144489134#3 290080809#0 290080809#4 84734271#1 84734271#2 84734271#3 84734271#5 84734271#6 84734271#7 91181767 gneE12 144489137#0"/>
        </routeDistribution>
        <stop parkingArea="parkingArea_224316522#0_0_572" duration="20.00" parking="1"/>
    </vehicle>

    <vehicle id="82" type="vecType" depart="18123.00" arrival="18783.00">
        <routeDistribution>
            <route replacedOnEdge="8922858#0" replacedOnIndex="20" reason="traci:changeTarget" replacedAtTime="18471.00" probability="0" edges="-133781749 -133781759#2 -133781759#1 -133781759#0 -27167270#2 -27167270#1 -27167270#0 -263855294#3 -263855294#0 -35973460#1 -228215681 -225432464 -207761516 111547662#0 88572901#0 264874017#0 25657409#17 25657409#18 25657409#19 255168047#0 8922858#0"/>