<?xml version="1.0" encoding="UTF-8"?>

<!-- generated on 2022-12-12 14:22:53 by Eclipse SUMO sumo Version 1.14.1
<configuration xmlns:xsi="http://www.w3.org/2001/XMLSchema-instance" xsi:noNamespaceSchemaLocation="http://sumo.dlr.de/xsd/sumoConfiguration.xsd">

    <input>
        <net-file value="./strategia1_config/../san_francisco.net.xml"/>
        <route-files value="./strategia1_config/../san_francisco.rou.xml"/>
        <additional-files value="./strategia1_config/../san_francisco.poly.xml,./strategia1_config/../parking_capacity_100%25/off_parking_100%25.add.xml,./strategia1_config/../parking_capacity_100%25/on_parking_100%25.add.xml"/>
    </input>

    <output>
        <emission-output value="./strategia1_config/../output/strategia1/100%25/emission.xml"/>
        <summary-output value="./strategia1_config/../output/strategia1/100%25/summary.xml"/>
        <tripinfo-output value="./strategia1_config/../output/strategia1/100%25/tripinfo.xml"/>
        <vehroute-output value="./strategia1_config/../output/strategia1/100%25/vehroute.xml"/>
        <stop-output value="./strategia1_config/../output/strategia1/100%25/stops.xml"/>
        <collision-output value="./strategia1_config/../output/strategia1/100%25/collision.xml"/>
        <statistic-output value="./strategia1_config/../output/strategia1/100%25/statistic.xml"/>
    </output>

    <time>
        <step-length value="1"/>
    </time>

    <processing>
        <ignore-route-errors value="false"/>
        <time-to-teleport value="-1"/>
    </processing>

    <report>
        <verbose value="true"/>
        <xml-validation value="never"/>
    </report>

    <traci_server>
        <remote-port value="56612"/>
    </traci_server>

    <gui_only>
        <gui-settings-file value="./strategia1_config/../gui-settings.cfg"/>
        <start value="true"/>
    </gui_only>

</configuration>
-->

<routes xmlns:xsi="http://www.w3.org/2001/XMLSchema-instance" xsi:noNamespaceSchemaLocation="http://sumo.dlr.de/xsd/routes_file.xsd">
    <vehicle id="116" type="vecType" depart="18240.00" color="red" arrival="19119.00">
        <route edges="48211196#5 -48211196#6 30029878#5 30029878#6 30029878#7 30029878#8 30029878#10 30029878#11 30029878#12 30029878#13 30029878#14 30029878#15 288065247#0 -24335483#5 -27166421#8 -27166421#7 -27166421#6 -27166421#5 27398045#7 8919058 8916882#0 -91181760#0 27166466#0 27166466#2 27166466#3 254297761#0 254297761#2 254297761#4 254758128#0 254758128#1 254448247#0 -85789165 85789166#0 88572895#0 214545530#0 214545530#3 214545530#4 214545530#7 143617593 254758139#0 254758139#1 162931811#0 -7373736#0 7373728 -133755923#0 -28518571#1 -28518571#0 -8916792"/>
    </vehicle>

    <vehicle id="130" type="vecType" depart="18300.00" color="yellow" arrival="19218.00">
        <routeDistribution>
            <route replacedOnEdge="-283537552#0" replacedOnIndex="32" reason="traci:setRoute" replacedAtTime="18726.00" probability="0" edges="23959829#0 8921849#0 8921849#1 8921849#2 -24310636#0 24335440#0 24335440#1 24335440#2 25657409#0 25657409#2 25657409#3 25657409#4 25657409#5 25657409#7 25657409#9 25657409#10 25657409#11 25657409#12 25657409#13 25657409#14 25657409#15 25657409#16 25657409#17 25657409#18 25657409#19 255168047#0 255168047#3 255168046#0 255168046#2 225518502#0 329607867 -283537552#1 -283537552#0 -35675861#1"/>
            <route replacedOnEdge="-35675861#1" replacedOnIndex="33" reason="traci:setRoute" replacedAtTime="18768.00" probability="0" edges="23959829#0 8921849#0 8921849#1 8921849#2 -24310636#0 24335440#0 24335440#1 24335440#2 25657409#0 25657409#2 25657409#3 25657409#4 25657409#5 25657409#7 25657409#9 25657409#10 25657409#11 25657409#12 25657409#13 25657409#14 25657409#15 25657409#16 25657409#17 25657409#18 25657409#19 255168047#0 255168047#3 255168046#0 255168046#2 225518502#0 329607867 -283537552#1 -283537552#0 -35675861#1 35675861#1"/>
            <route replacedOnEdge="35675861#1" replacedOnIndex="34" reason="traci:setRoute" replacedAtTime="18778.00" probability="0" edges="23959829#0 8921849#0 8921849#1 8921849#2 -24310636#0 24335440#0 24335440#1 24335440#2 25657409#0 25657409#2 25657409#3 25657409#4 25657409#5 25657409#7 25657409#9 25657409#10 25657409#11 25657409#12 25657409#13 25657409#14 25657409#15 25657409#16 25657409#17 25657409#18 25657409#19 255168047#0 255168047#3 255168046#0 255168046#2 225518502#0 329607867 -283537552#1 -283537552#0 -35675861#1 35675861#1 8915351"/>
            <route replacedOnEdge="8915351" replacedOnIndex="35" reason="traci:setRoute" replacedAtTime="18822.00" probability="0" edges="23959829#0 8921849#0 8921849#1 8921849#2 -24310636#0 24335440#0 24335440#1 24335440#2 25657409#0 25657409#2 25657409#3 25657409#4 25657409#5 25657409#7 25657409#9 25657409#10 25657409#11 25657409#12 25657409#13 25657409#14 25657409#15 25657409#16 25657409#17 25657409#18 25657409#19 255168047#0 255168047#3 255168046#0 255168046#2 225518502#0 329607867 -283537552#1 -283537552#0 -35675861#1 35675861#1 8915351 50690291#0"/>
            <route replacedOnEdge="50690291#0" replacedOnIndex="36" reason="traci:changeTarget" replacedAtTime="18825.00" probability="0" edges="23959829#0 8921849#0 8921849#1 8921849#2 -24310636#0 24335440#0 24335440#1 24335440#2 25657409#0 25657409#2 25657409#3 25657409#4 25657409#5 25657409#7 25657409#9 25657409#10 25657409#11 25657409#12 25657409#13 25657409#14 25657409#15 25657409#16 25657409#17 25657409#18 25657409#19 255168047#0 255168047#3 255168046#0 255168046#2 225518502#0 329607867 -283537552#1 -283537552#0 -35675861#1 35675861#1 8915351 50690291#0 50690291#1"/>
            <route edges="23959829#0 8921849#0 8921849#1 8921849#2 -24310636#0 24335440#0 24335440#1 24335440#2 25657409#0 25657409#2 25657409#3 25657409#4 25657409#5 25657409#7 25657409#9 25657409#10 25657409#11 25657409#12 25657409#13 25657409#14 25657409#15 25657409#16 25657409#17 25657409#18 25657409#19 255168047#0 255168047#3 255168046#0 255168046#2 225518502#0 329607867 -283537552#1 -283537552#0 -35675861#1 35675861#1 8915351 50690291#0 50690291#1 gneE4 90077241 8921938 120813417 202485364 31129732#0 31129732#1 26779355 8915704#0 8915704#1 254299121#6 256787755#2 256787755#3 256787755#5 91181768#0 91181768#1 91181768#2 91181768#3 133781720 24335439#0 24335439#1 24335439#2 24335441 gneE15 23959829#0"/>
        </routeDistribution>
    </vehicle>

    <vehicle id="228" type="vecType" depart="19080.00" color="red" arrival="19368.00">
        <route edges="144489137#3 254758126#1 254758126#2 254758126#3 254758126#4 254758126#5 254758126#6 25372932#0 25372932#1 254756525#23 254756525#25 254756525#26"/>
    </vehicle>

    <vehicle id="241" type="vecType" depart="19440.00" color="red" arrival="19560.00">
        <route edges="288065247#6 -288065247#6 254756525#20 254756525#23 254756525#25 254756525#26"/>
    </vehicle>

    <vehicle id="177" type="vecType" depart="18600.00" color="yellow" arrival="19848.00">
        <routeDistribution>
            <route replacedOnEdge="50690291#0" replacedOnIndex="33" reason="traci:changeTarget" replacedAtTime="19057.00" probability="0" edges="-30029708#0 30030100#0 30030100#2 148846995 148846996#0 148846996#1 148846996#2 -48211487#2 -48211487#1 -48211487#0 48211960 87376672#0 87376672#1 -91185877#1 -91185877#0 -254971056#1 -8922640#1 27054205#0 27054205#1 27054209#0 -254756526#1 -254396719#1 -254466686#4 27054213#4 27054213#6 91181774#0 8919020#0 88572905 91181770#0 283537380#0 283537380#1 283537380#2 8915351 50690291#0 50690291#1"/>
            <route edges="-30029708#0 30030100#0 30030100#2 148846995 148846996#0 148846996#1 148846996#2 -48211487#2 -48211487#1 -48211487#0 48211960 87376672#0 87376672#1 -91185877#1 -91185877#0 -254971056#1 -8922640#1 27054205#0 27054205#1 27054209#0 -254756526#1 -254396719#1 -254466686#4 27054213#4 27054213#6 91181774#0 8919020#0 88572905 91181770#0 283537380#0 283537380#1 283537380#2 8915351 50690291#0 50690291#1 gneE4 90077241 8921938 120813417 31129372 8922307 364480069 364480068#0 364480068#1 364480068#2 88572881#0 88572881#3 88597575#0 88597575#1 254466686#2 254466686#3 254466686#4 254396719#0 254756526#0 254971069#0 27054195#0 8922640#0 254971056#0 91185877#0 91185877#1 30030101#0 30030101#1 87376669 48211487#0 48211487#1 48211487#2 48211828 254756518 148874363#0 148874364#0 148874364#1 148874364#3 30029708#0 -30029708#0"/>
        </routeDistribution>
    </vehicle>

    <vehicle id="243" type="vecType" depart="19440.00" color="red" arrival="20170.00">
        <route edges="-48211196#4 -48211196#2 48211195#1 30030100#2 148846995 148846996#0 148846996#1 148846996#2 -48211487#2 -48211487#1 -48211487#0 48211960 87376672#0 87376672#1 -91185877#1 -91185877#0 -254971056#1 -8922640#1 27054205#0 27054205#1 8916867#0 8916867#2 287958607#0 287958607#2 287958607#3 287958607#4 133733590#0 -224384019#1 88597577#0 88559691#0 88559691#4 225518512#0 88559661#0 88559661#1 88559680#0 88559680#3 88559680#5 224384059#0 8920394#1 27656675 133755930#0 133755930#1"/>
    </vehicle>

    <vehicle id="302" type="vecType" depart="19800.00" color="yellow" arrival="20228.00">
        <routeDistribution>
            <route replacedOnEdge="50690291#0" replacedOnIndex="5" reason="traci:changeTarget" replacedAtTime="19872.00" probability="0" edges="-254758139#0 26779600 123741454#3 123741452 202317709 50690291#0 50690291#1"/>
            <route edges="-254758139#0 26779600 123741454#3 123741452 202317709 50690291#0 50690291#1 gneE4 90077241 8921938 120813417 202485364 8915062 143617593 254758139#0 -254758139#0"/>
        </routeDistribution>
    </vehicle>

    <vehicle id="313" type="vecType" depart="19920.00" color="red" arrival="20322.00">
        <route edges="-111089307#4 111089307#4 -27029200#1 -25758513 27029265#3 186400366#0 186400366#1 186400366#2 247960234#1 247966218#0 247966218#3 247966218#4 247966218#5 247966218#6 247966218#7 247966218#8 141688972#0 141688972#1 162931811#0 162931811#1 143617587 26943653#0 52432939 255330070#0 255330070#3 52432936#0"/>
    </vehicle>

    <vehicle id="136" type="vecType" depart="18360.00" color="yellow" arrival="20433.00">
        <routeDistribution>
            <route replacedOnEdge="224316514#0" replacedOnIndex="24" reason="traci:setRoute" replacedAtTime="18791.00" probability="0" edges="31129765 123741465 8915117 27432609 157812260#7 157812260#8 157812260#9 157812260#10 157812260#11 -88572941 -88572932#2 -88572932#1 -88572932#0 -51392400 -51392402#0 -51392402#1 -111560680 86334994#0 111552058#0 88597544#0 88597544#2 224316520#0 224316520#1 254297759#0 224316514#0 254306572#0"/>
            <route replacedOnEdge="224316513#0" replacedOnIndex="26" reason="traci:changeTarget" replacedAtTime="18871.00" probability="0" edges="31129765 123741465 8915117 27432609 157812260#7 157812260#8 157812260#9 157812260#10 157812260#11 -88572941 -88572932#2 -88572932#1 -88572932#0 -51392400 -51392402#0 -51392402#1 -111560680 86334994#0 111552058#0 88597544#0 88597544#2 224316520#0 224316520#1 254297759#0 224316514#0 254306572#0 224316513#0"/>
            <route edges="31129765 123741465 8915117 27432609 157812260#7 157812260#8 157812260#9 157812260#10 157812260#11 -88572941 -88572932#2 -88572932#1 -88572932#0 -51392400 -51392402#0 -51392402#1 -111560680 86334994#0 111552058#0 88597544#0 88597544#2 224316520#0 224316520#1 254297759#0 224316514#0 254306572#0 224316513#0 91181774#0 8919020#0 88572877#0 88559669 88572948#0 91181771#4 91181771#5 91181771#6 283534317#2 283534317#5 283534317#6 283534317#8 8915151 31129732#1 31129732#2 254299122 154966358 gneE27 31129765"/>
        </routeDistribution>
        <stop parkingArea="parkingArea_224316513#0_0_371" duration="1156.00" parking="1"/>
    </vehicle>

    <vehicle id="312" type="vecType" depart="19860.00" color="red" arrival="20452.00">
        <route edges="8922307 364480069 364480068#0 364480068#1 364480068#2 88572881#0 88572881#3 88597575#0 88597553#1 88597553#2 254971067#0 254466695#0 254466695#2 254466695#3 329596844#1 28841115#2 91181759#2 100400946 91181760#0 91181760#1 27166421#1 254756525#19 254756525#20 254756525#23 254756525#25 254756525#26"/>
    </vehicle>

    <vehicle id="322" type="vecType" depart="20040.00" color="red" arrival="20504.00">
        <route edges="99231460 27398032#0 -43100046 8917778 174822357#0 -255330036#12 -255330036#11 -255330036#10 -255330036#9 -255330036#8 -255330036#7 -255330036#6 -255330036#4 -255330036#3 -255330036#2 -141688972#2 162931811#0 -7373736#0 7373728 -133755923#0 -28518571#1 -28518571#0 -8916792"/>
    </vehicle>

    <vehicle id="318" type="vecType" depart="19980.00" color="yellow" arrival="20531.00">
        <routeDistribution>
            <route replacedOnEdge="50690291#0" replacedOnIndex="10" reason="traci:changeTarget" replacedAtTime="20137.00" probability="0" edges="-88572970 -256400251#1 256400244#0 225432457 -99231486 364480601#0 283537380#0 283537380#1 283537380#2 8915351 50690291#0 50690291#1"/>
            <route edges="-88572970 -256400251#1 256400244#0 225432457 -99231486 364480601#0 283537380#0 283537380#1 283537380#2 8915351 50690291#0 50690291#1 gneE4 90077241 8921938 120813417 31129372 8922307 364480069 364480068#0 364480068#1 364480068#2 88572970 -88572970"/>
        </routeDistribution>
    </vehicle>

    <vehicle id="291" type="vecType" depart="19680.00" color="yellow" arrival="20535.00">
        <routeDistribution>
            <route replacedOnEdge="99231460" replacedOnIndex="25" reason="traci:setRoute" replacedAtTime="20092.00" probability="0" edges="31129765 123741465 8915117 27432609 157812260#7 157812260#8 157812260#9 25657409#10 25657409#11 25657409#12 25657409#13 25657409#14 25657409#15 25657409#16 25657409#17 25657409#18 25657409#19 255168047#0 255168047#3 255168046#0 255168046#2 225518502#0 225518502#2 225518502#3 111049100#0 99231460 -99231486"/>
            <route replacedOnEdge="-99231486" replacedOnIndex="26" reason="traci:setRoute" replacedAtTime="20103.00" probability="0" edges="31129765 123741465 8915117 27432609 157812260#7 157812260#8 157812260#9 25657409#10 25657409#11 25657409#12 25657409#13 25657409#14 25657409#15 25657409#16 25657409#17 25657409#18 25657409#19 255168047#0 255168047#3 255168046#0 255168046#2 225518502#0 225518502#2 225518502#3 111049100#0 99231460 -99231486 364480601#0"/>
            <route replacedOnEdge="364480601#0" replacedOnIndex="27" reason="traci:setRoute" replacedAtTime="20113.00" probability="0" edges="31129765 123741465 8915117 27432609 157812260#7 157812260#8 157812260#9 25657409#10 25657409#11 25657409#12 25657409#13 25657409#14 25657409#15 25657409#16 25657409#17 25657409#18 25657409#19 255168047#0 255168047#3 255168046#0 255168046#2 225518502#0 225518502#2 225518502#3 111049100#0 99231460 -99231486 364480601#0 283537380#0"/>
            <route replacedOnEdge="283537380#0" replacedOnIndex="28" reason="traci:setRoute" replacedAtTime="20119.00" probability="0" edges="31129765 123741465 8915117 27432609 157812260#7 157812260#8 157812260#9 25657409#10 25657409#11 25657409#12 25657409#13 25657409#14 25657409#15 25657409#16 25657409#17 25657409#18 25657409#19 255168047#0 255168047#3 255168046#0 255168046#2 225518502#0 225518502#2 225518502#3 111049100#0 99231460 -99231486 364480601#0 283537380#0 283537380#1"/>
            <route replacedOnEdge="283537380#1" replacedOnIndex="29" reason="traci:setRoute" replacedAtTime="20125.00" probability="0" edges="31129765 123741465 8915117 27432609 157812260#7 157812260#8 157812260#9 25657409#10 25657409#11 25657409#12 25657409#13 25657409#14 25657409#15 25657409#16 25657409#17 25657409#18 25657409#19 255168047#0 255168047#3 255168046#0 255168046#2 225518502#0 225518502#2 225518502#3 111049100#0 99231460 -99231486 364480601#0 283537380#0 283537380#1 283537380#2"/>
            <route replacedOnEdge="283537380#2" replacedOnIndex="30" reason="traci:setRoute" replacedAtTime="20131.00" probability="0" edges="31129765 123741465 8915117 27432609 157812260#7 157812260#8 157812260#9 25657409#10 25657409#11 25657409#12 25657409#13 25657409#14 25657409#15 25657409#16 25657409#17 25657409#18 25657409#19 255168047#0 255168047#3 255168046#0 255168046#2 225518502#0 225518502#2 225518502#3 111049100#0 99231460 -99231486 364480601#0 283537380#0 283537380#1 283537380#2 -35675861#1"/>
            <route replacedOnEdge="-35675861#1" replacedOnIndex="31" reason="traci:setRoute" replacedAtTime="20141.00" probability="0" edges="31129765 123741465 8915117 27432609 157812260#7 157812260#8 157812260#9 25657409#10 25657409#11 25657409#12 25657409#13 25657409#14 25657409#15 25657409#16 25657409#17 25657409#18 25657409#19 255168047#0 255168047#3 255168046#0 255168046#2 225518502#0 225518502#2 225518502#3 111049100#0 99231460 -99231486 364480601#0 283537380#0 283537380#1 283537380#2 -35675861#1 35675861#1"/>
            <route replacedOnEdge="35675861#1" replacedOnIndex="32" reason="traci:setRoute" replacedAtTime="20152.00" probability="0" edges="31129765 123741465 8915117 27432609 157812260#7 157812260#8 157812260#9 25657409#10 25657409#11 25657409#12 25657409#13 25657409#14 25657409#15 25657409#16 25657409#17 25657409#18 25657409#19 255168047#0 255168047#3 255168046#0 255168046#2 225518502#0 225518502#2 225518502#3 111049100#0 99231460 -99231486 364480601#0 283537380#0 283537380#1 283537380#2 -35675861#1 35675861#1 8915351"/>
            <route replacedOnEdge="8915351" replacedOnIndex="33" reason="traci:setRoute" replacedAtTime="20172.00" probability="0" edges="31129765 123741465 8915117 27432609 157812260#7 157812260#8 157812260#9 25657409#10 25657409#11 25657409#12 25657409#13 25657409#14 25657409#15 25657409#16 25657409#17 25657409#18 25657409#19 255168047#0 255168047#3 255168046#0 255168046#2 225518502#0 225518502#2 225518502#3 111049100#0 99231460 -99231486 364480601#0 283537380#0 283537380#1 283537380#2 -35675861#1 35675861#1 8915351 50690291#0"/>
            <route replacedOnEdge="50690291#0" replacedOnIndex="34" reason="traci:changeTarget" replacedAtTime="20176.00" probability="0" edges="31129765 123741465 8915117 27432609 157812260#7 157812260#8 157812260#9 25657409#10 25657409#11 25657409#12 25657409#13 25657409#14 25657409#15 25657409#16 25657409#17 25657409#18 25657409#19 255168047#0 255168047#3 255168046#0 255168046#2 225518502#0 225518502#2 225518502#3 111049100#0 99231460 -99231486 364480601#0 283537380#0 283537380#1 283537380#2 -35675861#1 35675861#1 8915351 50690291#0 50690291#1"/>
            <route edges="31129765 123741465 8915117 27432609 157812260#7 157812260#8 157812260#9 25657409#10 25657409#11 25657409#12 25657409#13 25657409#14 25657409#15 25657409#16 25657409#17 25657409#18 25657409#19 255168047#0 255168047#3 255168046#0 255168046#2 225518502#0 225518502#2 225518502#3 111049100#0 99231460 -99231486 364480601#0 283537380#0 283537380#1 283537380#2 -35675861#1 35675861#1 8915351 50690291#0 50690291#1 gneE4 90077241 8921938 120813417 202485364 31129732#0 31129732#1 31129732#2 254299122 154966358 gneE27 31129765"/>
        </routeDistribution>
    </vehicle>

    <vehicle id="323" type="vecType" depart="20040.00" color="red" arrival="20543.00">
        <routeDistribution>
            <route replacedOnEdge="87297168" replacedOnIndex="27" reason="traci:setRoute" replacedAtTime="20403.00" probability="0" edges="254466686#4 254396719#0 254756526#0 254971069#0 27054195#0 8922640#0 254971056#0 91185877#0 91185877#1 30030101#0 30030101#1 87376669 48211487#0 48211487#1 48211487#2 48211828 254756518 148874363#0 148874364#0 148874364#1 148874364#3 30029708#0 30029708#1 30029708#2 30029866#0 30029866#2 30029866#3 87297168 204967525"/>
            <route replacedOnEdge="204967525" replacedOnIndex="28" reason="traci:setRoute" replacedAtTime="20444.00" probability="0" edges="254466686#4 254396719#0 254756526#0 254971069#0 27054195#0 8922640#0 254971056#0 91185877#0 91185877#1 30030101#0 30030101#1 87376669 48211487#0 48211487#1 48211487#2 48211828 254756518 148874363#0 148874364#0 148874364#1 148874364#3 30029708#0 30029708#1 30029708#2 30029866#0 30029866#2 30029866#3 87297168 204967525 -204967525"/>
            <route replacedOnEdge="-204967525" replacedOnIndex="29" reason="traci:setRoute" replacedAtTime="20455.00" probability="0" edges="254466686#4 254396719#0 254756526#0 254971069#0 27054195#0 8922640#0 254971056#0 91185877#0 91185877#1 30030101#0 30030101#1 87376669 48211487#0 48211487#1 48211487#2 48211828 254756518 148874363#0 148874364#0 148874364#1 148874364#3 30029708#0 30029708#1 30029708#2 30029866#0 30029866#2 30029866#3 87297168 204967525 -204967525 -87297168"/>
            <route replacedOnEdge="-87297168" replacedOnIndex="30" reason="traci:setRoute" replacedAtTime="20464.00" probability="0" edges="254466686#4 254396719#0 254756526#0 254971069#0 27054195#0 8922640#0 254971056#0 91185877#0 91185877#1 30030101#0 30030101#1 87376669 48211487#0 48211487#1 48211487#2 48211828 254756518 148874363#0 148874364#0 148874364#1 148874364#3 30029708#0 30029708#1 30029708#2 30029866#0 30029866#2 30029866#3 87297168 204967525 -204967525 -87297168 87297168"/>
            <route edges="254466686#4 254396719#0 254756526#0 254971069#0 27054195#0 8922640#0 254971056#0 91185877#0 91185877#1 30030101#0 30030101#1 87376669 48211487#0 48211487#1 48211487#2 48211828 254756518 148874363#0 148874364#0 148874364#1 148874364#3 30029708#0 30029708#1 30029708#2 30029866#0 30029866#2 30029866#3 87297168 204967525 -204967525 -87297168 87297168 204967525"/>
        </routeDistribution>
    </vehicle>

    <vehicle id="311" type="vecType" depart="19860.00" color="yellow" arrival="20567.00">
        <routeDistribution>
            <route replacedOnEdge="50690291#0" replacedOnIndex="10" reason="traci:changeTarget" replacedAtTime="20051.00" probability="0" edges="204884387#0 -204884387#2 -224384019#1 88597577#0 88559691#0 88559691#4 225518502#0 329607867 27772070 202317709 50690291#0 50690291#1"/>
            <route edges="204884387#0 -204884387#2 -224384019#1 88597577#0 88559691#0 88559691#4 225518502#0 329607867 27772070 202317709 50690291#0 50690291#1 gneE4 90077241 8921938 120813417 31129372 8922307 364480069 364480068#0 364480068#1 364480068#2 88572881#0 305585433 228186482#0 204884378#0 225719777#0 224200967 224384019#0 204884387#0"/>
        </routeDistribution>
    </vehicle>

    <vehicle id="160" type="vecType" depart="18540.00" color="yellow" arrival="20592.00">
        <routeDistribution>
            <route replacedOnEdge="255330036#10" replacedOnIndex="13" reason="traci:setRoute" replacedAtTime="18851.00" probability="0" edges="90077241 8921938 120813417 31129372 35675861#1 283537552#0 283537552#1 283537644#0 283537644#2 88559661#0 88559661#1 88559680#0 88559680#3 255330036#10 -255330036#10"/>
            <route replacedOnEdge="-88559680#4" replacedOnIndex="15" reason="traci:changeTarget" replacedAtTime="18864.00" probability="0" edges="90077241 8921938 120813417 31129372 35675861#1 283537552#0 283537552#1 283537644#0 283537644#2 88559661#0 88559661#1 88559680#0 88559680#3 255330036#10 -255330036#10 -88559680#4"/>
            <route edges="90077241 8921938 120813417 31129372 35675861#1 283537552#0 283537552#1 283537644#0 283537644#2 88559661#0 88559661#1 88559680#0 88559680#3 255330036#10 -255330036#10 -88559680#4 -88559680#2 88559650 175354957#0 175354957#1 50690291#1 gneE4 90077241"/>
        </routeDistribution>
        <stop parkingArea="parkingArea_-88559680#4_0_486" duration="1444.00" parking="1"/>
    </vehicle>

    <vehicle id="242" type="vecType" depart="19440.00" color="yellow" arrival="20602.00">
        <routeDistribution>
            <route replacedOnEdge="-35675861#1" replacedOnIndex="22" reason="traci:setRoute" replacedAtTime="19944.00" probability="0" edges="225806031#0 225806031#2 254759928#0 254759928#1 254759928#2 254759928#3 254759927#0 254759927#1 111547662#0 88572901#0 264874017#0 25657409#17 25657409#18 25657409#19 255168047#0 255168047#3 255168046#0 255168046#2 225518502#0 329607867 -283537552#1 -283537552#0 -35675861#1 35675861#1"/>
            <route replacedOnEdge="35675861#1" replacedOnIndex="23" reason="traci:setRoute" replacedAtTime="19953.00" probability="0" edges="225806031#0 225806031#2 254759928#0 254759928#1 254759928#2 254759928#3 254759927#0 254759927#1 111547662#0 88572901#0 264874017#0 25657409#17 25657409#18 25657409#19 255168047#0 255168047#3 255168046#0 255168046#2 225518502#0 329607867 -283537552#1 -283537552#0 -35675861#1 35675861#1 8915351"/>
            <route replacedOnEdge="8915351" replacedOnIndex="24" reason="traci:setRoute" replacedAtTime="19991.00" probability="0" edges="225806031#0 225806031#2 254759928#0 254759928#1 254759928#2 254759928#3 254759927#0 254759927#1 111547662#0 88572901#0 264874017#0 25657409#17 25657409#18 25657409#19 255168047#0 255168047#3 255168046#0 255168046#2 225518502#0 329607867 -283537552#1 -283537552#0 -35675861#1 35675861#1 8915351 50690291#0"/>
            <route replacedOnEdge="50690291#0" replacedOnIndex="25" reason="traci:changeTarget" replacedAtTime="19995.00" probability="0" edges="225806031#0 225806031#2 254759928#0 254759928#1 254759928#2 254759928#3 254759927#0 254759927#1 111547662#0 88572901#0 264874017#0 25657409#17 25657409#18 25657409#19 255168047#0 255168047#3 255168046#0 255168046#2 225518502#0 329607867 -283537552#1 -283537552#0 -35675861#1 35675861#1 8915351 50690291#0 50690291#1"/>
            <route edges="225806031#0 225806031#2 254759928#0 254759928#1 254759928#2 254759928#3 254759927#0 254759927#1 111547662#0 88572901#0 264874017#0 25657409#17 25657409#18 25657409#19 255168047#0 255168047#3 255168046#0 255168046#2 225518502#0 329607867 -283537552#1 -283537552#0 -35675861#1 35675861#1 8915351 50690291#0 50690291#1 gneE4 90077241 8921938 120813417 202485364 8915062 -214545530#7 -214545530#6 8920281#1 8920281#2 -264874017#3 -264874017#2 -88572901#2 -111547662#2 26938124#0 26938124#1 8922164#2 8922164#3 8922164#4 8922164#5 8922164#6 254448252#0 254448252#1 gneE13 225806031#0"/>
        </routeDistribution>
    </vehicle>

    <vehicle id="231" type="vecType" depart="19140.00" color="yellow" arrival="20761.00">
        <routeDistribution>
            <route replacedOnEdge="283537552#0" replacedOnIndex="44" reason="traci:setRoute" replacedAtTime="19711.00" probability="0" edges="-254297762#2 -254297762#0 -255168048#4 -255168048#3 34128718#1 -254299113#2 143666209#2 143666209#3 143666209#4 143666209#6 91185870#0 91185870#1 -30029708#0 30030100#0 30030100#2 148846995 148846996#0 148846996#1 148846996#2 -48211487#2 -48211487#1 -48211487#0 48211960 87376672#0 87376672#1 -91185877#1 -91185877#0 -254971056#1 -8922640#1 27054205#0 27054205#1 27054209#0 -254756526#1 -254396719#1 -254466686#4 27054213#4 27054213#6 91181774#0 8919020#0 88572905 91181770#0 283537380#0 283537380#1 283537380#2 283537552#0 -283537552#0"/>
            <route replacedOnEdge="-283537552#0" replacedOnIndex="45" reason="traci:setRoute" replacedAtTime="19718.00" probability="0" edges="-254297762#2 -254297762#0 -255168048#4 -255168048#3 34128718#1 -254299113#2 143666209#2 143666209#3 143666209#4 143666209#6 91185870#0 91185870#1 -30029708#0 30030100#0 30030100#2 148846995 148846996#0 148846996#1 148846996#2 -48211487#2 -48211487#1 -48211487#0 48211960 87376672#0 87376672#1 -91185877#1 -91185877#0 -254971056#1 -8922640#1 27054205#0 27054205#1 27054209#0 -254756526#1 -254396719#1 -254466686#4 27054213#4 27054213#6 91181774#0 8919020#0 88572905 91181770#0 283537380#0 283537380#1 283537380#2 283537552#0 -283537552#0 -35675861#1"/>
            <route replacedOnEdge="-35675861#1" replacedOnIndex="46" reason="traci:setRoute" replacedAtTime="19728.00" probability="0" edges="-254297762#2 -254297762#0 -255168048#4 -255168048#3 34128718#1 -254299113#2 143666209#2 143666209#3 143666209#4 143666209#6 91185870#0 91185870#1 -30029708#0 30030100#0 30030100#2 148846995 148846996#0 148846996#1 148846996#2 -48211487#2 -48211487#1 -48211487#0 48211960 87376672#0 87376672#1 -91185877#1 -91185877#0 -254971056#1 -8922640#1 27054205#0 27054205#1 27054209#0 -254756526#1 -254396719#1 -254466686#4 27054213#4 27054213#6 91181774#0 8919020#0 88572905 91181770#0 283537380#0 283537380#1 283537380#2 283537552#0 -283537552#0 -35675861#1 35675861#1"/>
            <route replacedOnEdge="35675861#1" replacedOnIndex="47" reason="traci:setRoute" replacedAtTime="19767.00" probability="0" edges="-254297762#2 -254297762#0 -255168048#4 -255168048#3 34128718#1 -254299113#2 143666209#2 143666209#3 143666209#4 143666209#6 91185870#0 91185870#1 -30029708#0 30030100#0 30030100#2 148846995 148846996#0 148846996#1 148846996#2 -48211487#2 -48211487#1 -48211487#0 48211960 87376672#0 87376672#1 -91185877#1 -91185877#0 -254971056#1 -8922640#1 27054205#0 27054205#1 27054209#0 -254756526#1 -254396719#1 -254466686#4 27054213#4 27054213#6 91181774#0 8919020#0 88572905 91181770#0 283537380#0 283537380#1 283537380#2 283537552#0 -283537552#0 -35675861#1 35675861#1 8915351"/>
            <route replacedOnEdge="8915351" replacedOnIndex="48" reason="traci:setRoute" replacedAtTime="19814.00" probability="0" edges="-254297762#2 -254297762#0 -255168048#4 -255168048#3 34128718#1 -254299113#2 143666209#2 143666209#3 143666209#4 143666209#6 91185870#0 91185870#1 -30029708#0 30030100#0 30030100#2 148846995 148846996#0 148846996#1 148846996#2 -48211487#2 -48211487#1 -48211487#0 48211960 87376672#0 87376672#1 -91185877#1 -91185877#0 -254971056#1 -8922640#1 27054205#0 27054205#1 27054209#0 -254756526#1 -254396719#1 -254466686#4 27054213#4 27054213#6 91181774#0 8919020#0 88572905 91181770#0 283537380#0 283537380#1 283537380#2 283537552#0 -283537552#0 -35675861#1 35675861#1 8915351 50690291#0"/>