<?xml version="1.0" encoding="UTF-8"?>

<!-- generated on 2022-12-20 21:44:53 by Eclipse SUMO sumo Version 1.14.1
<configuration xmlns:xsi="http://www.w3.org/2001/XMLSchema-instance" xsi:noNamespaceSchemaLocation="http://sumo.dlr.de/xsd/sumoConfiguration.xsd">

    <input>
        <net-file value="./strategia1_config/../san_francisco.net.xml"/>
        <route-files value="./strategia1_config/../san_francisco.rou.xml"/>
        <additional-files value="./strategia1_config/../san_francisco.poly.xml,./strategia1_config/../parking_capacity_100%25/off_parking_100%25.add.xml,./strategia1_config/../parking_capacity_100%25/on_parking_100%25.add.xml"/>
    </input>

    <output>
        <emission-output value="./strategia1_config/../output/strategia1/100%25/emissions.xml"/>
        <tripinfo-output value="./strategia1_config/../output/strategia1/100%25/tripinfo.xml"/>
        <vehroute-output value="./strategia1_config/../output/strategia1/100%25/vehroute.xml"/>
        <stop-output value="./strategia1_config/../output/strategia1/100%25/stops.xml"/>
        <collision-output value="./strategia1_config/../output/strategia1/100%25/collision.xml"/>
        <statistic-output value="./strategia1_config/../output/strategia1/100%25/statistic.xml"/>
    </output>

    <time>
        <step-length value="1"/>
    </time>

    <processing>
        <ignore-route-errors value="false"/>
        <time-to-teleport value="-1"/>
    </processing>

    <report>
        <verbose value="true"/>
        <xml-validation value="never"/>
    </report>

    <traci_server>
        <remote-port value="59394"/>
    </traci_server>

    <gui_only>
        <gui-settings-file value="./strategia1_config/../gui-settings.cfg"/>
        <start value="true"/>
    </gui_only>

</configuration>
-->

<routes xmlns:xsi="http://www.w3.org/2001/XMLSchema-instance" xsi:noNamespaceSchemaLocation="http://sumo.dlr.de/xsd/routes_file.xsd">
    <vehicle id="386" type="vecType" depart="21360.00" arrival="22385.00">
        <routeDistribution>
            <route replacedOnEdge="255168046#2" replacedOnIndex="19" reason="traci:changeTarget" replacedAtTime="21800.00" probability="0" edges="8916792 28518571#0 28518571#1 133755923#0 -7373728 7373736#0 -162931811#0 141688972#2 255330036#0 255330036#3 255330036#4 255330036#5 133735130#2 133735130#4 254299142#0 254299142#1 254299142#2 254299142#3 255168046#0 255168046#2"/>
            <route edges="8916792 28518571#0 28518571#1 133755923#0 -7373728 7373736#0 -162931811#0 141688972#2 255330036#0 255330036#3 255330036#4 255330036#5 133735130#2 133735130#4 254299142#0 254299142#1 254299142#2 254299142#3 255168046#0 255168046#2 225518512#0 88559702#0 88559702#1 88559702#2 25758528#0 25758528#1 143617584 143617593 254758139#0 254758139#1 162931811#0 -7373736#0 7373728 -133755923#0 -28518571#1 -28518571#0 -8916792 8916792"/>
        </routeDistribution>
        <stop parkingArea="parkingArea_255168046#2_0_453" duration="3.00" parking="1"/>
    </vehicle>

    <vehicle id="470" type="vecType" depart="21600.00" arrival="22589.00">
        <routeDistribution>
            <route replacedOnEdge="255168046#2" replacedOnIndex="17" reason="traci:changeTarget" replacedAtTime="21969.00" probability="0" edges="225806031#0 225806031#2 254759928#0 254759928#1 254759928#2 254759928#3 254759927#0 254759927#1 111547662#0 88572901#0 264874017#0 25657409#17 25657409#18 25657409#19 255168047#0 255168047#3 255168046#0 255168046#2"/>
            <route edges="225806031#0 225806031#2 254759928#0 254759928#1 254759928#2 254759928#3 254759927#0 254759927#1 111547662#0 88572901#0 264874017#0 25657409#17 25657409#18 25657409#19 255168047#0 255168047#3 255168046#0 255168046#2 -88559691#6 -88559691#3 88559669 88572965#0 88572965#1 111552058#0 204884397 228201785#0 228201785#1 225806043 225806042#0 8922164#0 8922164#1 8922164#2 8922164#3 8922164#4 8922164#5 8922164#6 254448252#0 254448252#1 gneE13 225806031#0"/>
        </routeDistribution>
        <stop parkingArea="parkingArea_255168046#2_0_453" duration="3.00" parking="1"/>
    </vehicle>

</routes>
