<?xml version="1.0" encoding="UTF-8"?>

<!-- generated on 2023-01-10 23:39:36 by Eclipse SUMO sumo Version 1.14.1
<configuration xmlns:xsi="http://www.w3.org/2001/XMLSchema-instance" xsi:noNamespaceSchemaLocation="http://sumo.dlr.de/xsd/sumoConfiguration.xsd">

    <input>
        <net-file value="./strategia2_config/../san_francisco.net.xml"/>
        <route-files value="./strategia2_config/../san_francisco.rou.xml"/>
        <additional-files value="./strategia2_config/../san_francisco.poly.xml,./strategia2_config/../parking_capacity_50%25/off_parking_50%25.add.xml,./strategia2_config/../parking_capacity_50%25/on_parking_50%25.add.xml"/>
    </input>

    <output>
        <emission-output value="./strategia2_config/../output/strategia2/50%25/emissions.xml"/>
        <tripinfo-output value="./strategia2_config/../output/strategia2/50%25/tripinfo.xml"/>
        <vehroute-output value="./strategia2_config/../output/strategia2/50%25/vehroute.xml"/>
        <stop-output value="./strategia2_config/../output/strategia2/50%25/stops.xml"/>
        <collision-output value="./strategia2_config/../output/strategia2/50%25/collision.xml"/>
        <statistic-output value="./strategia2_config/../output/strategia2/50%25/statistic.xml"/>
    </output>

    <time>
        <step-length value="1"/>
    </time>

    <processing>
        <ignore-route-errors value="false"/>
    </processing>

    <report>
        <verbose value="true"/>
        <xml-validation value="never"/>
    </report>

    <traci_server>
        <remote-port value="51922"/>
    </traci_server>

    <gui_only>
        <gui-settings-file value="./strategia2_config/../gui-settings.cfg"/>
        <start value="true"/>
    </gui_only>

</configuration>
-->

<tripinfos xmlns:xsi="http://www.w3.org/2001/XMLSchema-instance" xsi:noNamespaceSchemaLocation="http://sumo.dlr.de/xsd/tripinfo_file.xsd">
    <tripinfo id="114" depart="18240.00" departLane="-254758120#3_0" departPos="5.10" departSpeed="0.00" departDelay="0.00" arrival="19853.00" arrivalLane="-254758120#3_0" arrivalPos="147.41" arrivalSpeed="11.51" duration="1613.00" routeLength="3346.72" waitingTime="286.00" waitingCount="9" stopTime="981.00" timeLoss="358.22" rerouteNo="2" devices="vehroute_114 tripinfo_114 emissions_114" vType="vecType" speedFactor="1.10" vaporized="">
        <emissions CO_abs="62584.241745" CO2_abs="1675603.413474" HC_abs="323.608829" PMx_abs="33.607052" NOx_abs="711.427229" fuel_abs="534459.299520" electricity_abs="0"/>
    </tripinfo>
    <tripinfo id="47" depart="18060.00" departLane="90077241_0" departPos="5.10" departSpeed="0.00" departDelay="0.00" arrival="19875.00" arrivalLane="90077241_0" arrivalPos="3225.35" arrivalSpeed="26.14" duration="1815.00" routeLength="11565.45" waitingTime="1.00" waitingCount="1" stopTime="1239.00" timeLoss="41.11" rerouteNo="1" devices="vehroute_47 tripinfo_47 emissions_47" vType="vecType" speedFactor="0.90" vaporized="">
        <emissions CO_abs="27736.494674" CO2_abs="2382108.672033" HC_abs="182.052059" PMx_abs="44.869521" NOx_abs="884.464914" fuel_abs="759781.917025" electricity_abs="0"/>
    </tripinfo>
    <tripinfo id="28" depart="18009.00" departLane="90077241_0" departPos="5.10" departSpeed="0.00" departDelay="9.00" arrival="19908.00" arrivalLane="90077241_0" arrivalPos="3225.35" arrivalSpeed="32.87" duration="1899.00" routeLength="11899.33" waitingTime="70.00" waitingCount="3" stopTime="1340.00" timeLoss="130.57" rerouteNo="2" devices="vehroute_28 tripinfo_28 emissions_28" vType="vecType" speedFactor="1.13" vaporized="">
        <emissions CO_abs="62437.394833" CO2_abs="3144745.314124" HC_abs="363.093835" PMx_abs="72.700878" NOx_abs="1237.239433" fuel_abs="1003031.006941" electricity_abs="0"/>
    </tripinfo>
    <tripinfo id="86" depart="18120.00" departLane="-35977367#2_0" departPos="5.10" departSpeed="0.00" departDelay="0.00" arrival="20055.00" arrivalLane="-35977367#2_0" arrivalPos="431.73" arrivalSpeed="11.03" duration="1935.00" routeLength="5770.12" waitingTime="325.00" waitingCount="9" stopTime="993.00" timeLoss="426.75" rerouteNo="2" devices="vehroute_86 tripinfo_86 emissions_86" vType="vecType" speedFactor="1.00" vaporized="">
        <emissions CO_abs="78210.808361" CO2_abs="2390500.448260" HC_abs="411.534493" PMx_abs="44.943595" NOx_abs="997.815809" fuel_abs="762482.879232" electricity_abs="0"/>
    </tripinfo>
    <tripinfo id="33" depart="18000.00" departLane="144489137#0_0" departPos="5.10" departSpeed="0.00" departDelay="0.00" arrival="20131.00" arrivalLane="144489137#0_0" arrivalPos="135.49" arrivalSpeed="12.28" duration="2131.00" routeLength="3872.00" waitingTime="313.00" waitingCount="13" stopTime="1429.00" timeLoss="409.03" rerouteNo="1" devices="vehroute_33 tripinfo_33 emissions_33" vType="vecType" speedFactor="1.17" vaporized="">
        <emissions CO_abs="69400.014134" CO2_abs="1937106.286907" HC_abs="360.197728" PMx_abs="38.679904" NOx_abs="819.077137" fuel_abs="617868.018411" electricity_abs="0"/>
    </tripinfo>
    <tripinfo id="64" depart="18060.00" departLane="28319343#2_0" departPos="5.10" departSpeed="0.00" departDelay="0.00" arrival="20221.00" arrivalLane="28319343#2_0" arrivalPos="90.58" arrivalSpeed="9.42" duration="2161.00" routeLength="9974.14" waitingTime="267.00" waitingCount="9" stopTime="1296.00" timeLoss="339.14" rerouteNo="2" devices="vehroute_64 tripinfo_64 emissions_64" vType="vecType" speedFactor="0.94" vaporized="">
        <emissions CO_abs="74730.622356" CO2_abs="2914351.537156" HC_abs="408.873668" PMx_abs="59.089975" NOx_abs="1164.687200" fuel_abs="929560.083680" electricity_abs="0"/>
    </tripinfo>
    <tripinfo id="13" depart="18003.00" departLane="90077241_0" departPos="5.10" departSpeed="0.00" departDelay="3.00" arrival="20456.00" arrivalLane="90077241_0" arrivalPos="3225.35" arrivalSpeed="32.27" duration="2453.00" routeLength="12752.38" waitingTime="155.00" waitingCount="6" stopTime="1702.00" timeLoss="231.30" rerouteNo="1" devices="vehroute_13 tripinfo_13 emissions_13" vType="vecType" speedFactor="1.12" vaporized="">
        <emissions CO_abs="78375.698673" CO2_abs="3523938.742108" HC_abs="443.983641" PMx_abs="79.301203" NOx_abs="1392.714797" fuel_abs="1123982.726891" electricity_abs="0"/>
    </tripinfo>
    <tripinfo id="11" depart="18003.00" departLane="225806031#0_0" departPos="5.10" departSpeed="0.00" departDelay="3.00" arrival="20517.00" arrivalLane="225806031#0_0" arrivalPos="142.16" arrivalSpeed="10.97" duration="2514.00" routeLength="6601.41" waitingTime="409.00" waitingCount="16" stopTime="1387.00" timeLoss="552.72" rerouteNo="1" devices="vehroute_11 tripinfo_11 emissions_11" vType="vecType" speedFactor="1.03" vaporized="">
        <emissions CO_abs="96935.973888" CO2_abs="2853809.312843" HC_abs="507.282479" PMx_abs="53.667536" NOx_abs="1189.422066" fuel_abs="910263.996122" electricity_abs="0"/>
    </tripinfo>
    <tripinfo id="132" depart="18300.00" departLane="142972028#1_0" departPos="5.10" departSpeed="0.00" departDelay="0.00" arrival="20561.00" arrivalLane="142972028#1_0" arrivalPos="161.20" arrivalSpeed="9.69" duration="2261.00" routeLength="5496.80" waitingTime="162.00" waitingCount="6" stopTime="1563.00" timeLoss="245.73" rerouteNo="2" devices="vehroute_132 tripinfo_132 emissions_132" vType="vecType" speedFactor="0.96" vaporized="">
        <emissions CO_abs="48608.804180" CO2_abs="1842814.081051" HC_abs="263.776001" PMx_abs="32.944554" NOx_abs="750.930923" fuel_abs="587785.758675" electricity_abs="0"/>
    </tripinfo>
    <tripinfo id="193" depart="18663.00" departLane="90077241_0" departPos="5.10" departSpeed="0.00" departDelay="3.00" arrival="20608.00" arrivalLane="90077241_0" arrivalPos="3225.35" arrivalSpeed="27.85" duration="1945.00" routeLength="11127.63" waitingTime="20.00" waitingCount="1" stopTime="1432.00" timeLoss="59.14" rerouteNo="1" devices="vehroute_193 tripinfo_193 emissions_193" vType="vecType" speedFactor="0.97" vaporized="">
        <emissions CO_abs="33635.967587" CO2_abs="2410900.138586" HC_abs="211.192373" PMx_abs="49.236876" NOx_abs="904.419465" fuel_abs="768965.880438" electricity_abs="0"/>
    </tripinfo>
    <tripinfo id="106" depart="18180.00" departLane="-206679802#4_0" departPos="5.10" departSpeed="0.00" departDelay="0.00" arrival="20628.00" arrivalLane="-206679802#4_0" arrivalPos="292.11" arrivalSpeed="11.26" duration="2448.00" routeLength="8674.86" waitingTime="334.00" waitingCount="16" stopTime="1195.00" timeLoss="489.57" rerouteNo="1" devices="vehroute_106 tripinfo_106 emissions_106" vType="vecType" speedFactor="1.01" vaporized="">
        <emissions CO_abs="90671.187295" CO2_abs="3153530.778825" HC_abs="485.790966" PMx_abs="56.697388" NOx_abs="1298.687105" fuel_abs="1005856.927877" electricity_abs="0"/>
    </tripinfo>
    <tripinfo id="115" depart="18240.00" departLane="90077241_0" departPos="5.10" departSpeed="0.00" departDelay="0.00" arrival="20661.00" arrivalLane="90077241_0" arrivalPos="3225.35" arrivalSpeed="25.52" duration="2421.00" routeLength="13066.86" waitingTime="159.00" waitingCount="7" stopTime="1521.00" timeLoss="232.45" rerouteNo="1" devices="vehroute_115 tripinfo_115 emissions_115" vType="vecType" speedFactor="0.92" vaporized="">
        <emissions CO_abs="62413.395348" CO2_abs="3206703.471690" HC_abs="359.596068" PMx_abs="62.436768" NOx_abs="1238.178847" fuel_abs="1022800.746090" electricity_abs="0"/>
    </tripinfo>
    <tripinfo id="68" depart="18060.00" departLane="27167762_0" departPos="5.10" departSpeed="0.00" departDelay="0.00" arrival="20690.00" arrivalLane="27167762_0" arrivalPos="139.02" arrivalSpeed="22.09" duration="2630.00" routeLength="5366.29" waitingTime="154.00" waitingCount="7" stopTime="2038.00" timeLoss="240.41" rerouteNo="1" devices="vehroute_68 tripinfo_68 emissions_68" vType="vecType" speedFactor="1.04" vaporized="">
        <emissions CO_abs="49425.466688" CO2_abs="1960429.285370" HC_abs="270.896148" PMx_abs="38.310686" NOx_abs="804.942750" fuel_abs="625296.421296" electricity_abs="0"/>
    </tripinfo>
    <tripinfo id="135" depart="18360.00" departLane="90077241_0" departPos="5.10" departSpeed="0.00" departDelay="0.00" arrival="20728.00" arrivalLane="90077241_0" arrivalPos="3225.35" arrivalSpeed="28.45" duration="2368.00" routeLength="11126.88" waitingTime="91.00" waitingCount="3" stopTime="1794.00" timeLoss="139.16" rerouteNo="1" devices="vehroute_135 tripinfo_135 emissions_135" vType="vecType" speedFactor="1.01" vaporized="">
        <emissions CO_abs="49663.610465" CO2_abs="2700857.036036" HC_abs="292.400344" PMx_abs="58.006604" NOx_abs="1033.975336" fuel_abs="861453.193554" electricity_abs="0"/>
    </tripinfo>
    <tripinfo id="97" depart="18180.00" departLane="142972028#1_0" departPos="5.10" departSpeed="0.00" departDelay="0.00" arrival="20745.00" arrivalLane="142972028#1_0" arrivalPos="161.20" arrivalSpeed="9.16" duration="2565.00" routeLength="7385.75" waitingTime="282.00" waitingCount="11" stopTime="1504.00" timeLoss="396.69" rerouteNo="1" devices="vehroute_97 tripinfo_97 emissions_97" vType="vecType" speedFactor="0.91" vaporized="">
        <emissions CO_abs="77901.317986" CO2_abs="2662166.364247" HC_abs="415.781226" PMx_abs="47.380007" NOx_abs="1088.077919" fuel_abs="849131.868191" electricity_abs="0"/>
    </tripinfo>
    <tripinfo id="150" depart="18480.00" departLane="144489137#0_0" departPos="5.10" departSpeed="0.00" departDelay="0.00" arrival="20770.00" arrivalLane="144489137#0_0" arrivalPos="135.49" arrivalSpeed="11.26" duration="2290.00" routeLength="6188.13" waitingTime="298.00" waitingCount="12" stopTime="1350.00" timeLoss="405.47" rerouteNo="2" devices="vehroute_150 tripinfo_150 emissions_150" vType="vecType" speedFactor="1.03" vaporized="">
        <emissions CO_abs="71844.827266" CO2_abs="2304212.186302" HC_abs="380.124839" PMx_abs="41.495039" NOx_abs="947.102243" fuel_abs="734960.092732" electricity_abs="0"/>
    </tripinfo>
    <tripinfo id="154" depart="18480.00" departLane="-27570786#2_0" departPos="5.10" departSpeed="0.00" departDelay="0.00" arrival="20821.00" arrivalLane="-27570786#2_0" arrivalPos="88.50" arrivalSpeed="12.00" duration="2341.00" routeLength="5558.23" waitingTime="266.00" waitingCount="11" stopTime="1510.00" timeLoss="369.37" rerouteNo="1" devices="vehroute_154 tripinfo_154 emissions_154" vType="vecType" speedFactor="1.08" vaporized="">
        <emissions CO_abs="66293.206453" CO2_abs="2182622.720847" HC_abs="352.031428" PMx_abs="40.118326" NOx_abs="901.756703" fuel_abs="696175.452225" electricity_abs="0"/>
    </tripinfo>
    <tripinfo id="51" depart="18063.00" departLane="8915254_0" departPos="5.10" departSpeed="0.00" departDelay="3.00" arrival="20890.00" arrivalLane="8915254_0" arrivalPos="317.12" arrivalSpeed="24.80" duration="2827.00" routeLength="7519.90" waitingTime="220.00" waitingCount="10" stopTime="1953.00" timeLoss="370.29" rerouteNo="1" devices="vehroute_51 tripinfo_51 emissions_51" vType="vecType" speedFactor="1.17" vaporized="">
        <emissions CO_abs="69043.327384" CO2_abs="2747049.409323" HC_abs="377.792079" PMx_abs="52.652390" NOx_abs="1133.907085" fuel_abs="876195.941162" electricity_abs="0"/>
    </tripinfo>
    <tripinfo id="60" depart="18060.00" departLane="8916792_0" departPos="5.10" departSpeed="0.00" departDelay="0.00" arrival="21007.00" arrivalLane="8916792_0" arrivalPos="615.11" arrivalSpeed="11.82" duration="2947.00" routeLength="3743.73" waitingTime="23.00" waitingCount="3" stopTime="2573.00" timeLoss="64.39" rerouteNo="1" devices="vehroute_60 tripinfo_60 emissions_60" vType="vecType" speedFactor="1.08" vaporized="">
        <emissions CO_abs="14003.552556" CO2_abs="895871.553434" HC_abs="83.984350" PMx_abs="12.989427" NOx_abs="345.168460" fuel_abs="285745.442234" electricity_abs="0"/>
    </tripinfo>
    <tripinfo id="54" depart="18060.00" departLane="-27570802#1_0" departPos="5.10" departSpeed="0.00" departDelay="0.00" arrival="21067.00" arrivalLane="-27570802#1_0" arrivalPos="269.14" arrivalSpeed="10.01" duration="3007.00" routeLength="8487.56" waitingTime="499.00" waitingCount="17" stopTime="1605.00" timeLoss="645.02" rerouteNo="2" devices="vehroute_54 tripinfo_54 emissions_54" vType="vecType" speedFactor="1.00" vaporized="">
        <emissions CO_abs="115347.462229" CO2_abs="3393802.169702" HC_abs="603.515305" PMx_abs="62.601366" NOx_abs="1406.235678" fuel_abs="1082504.041731" electricity_abs="0"/>
    </tripinfo>
    <tripinfo id="199" depart="18720.00" departLane="-254297762#2_0" departPos="5.10" departSpeed="0.00" departDelay="0.00" arrival="21110.00" arrivalLane="-254297762#2_1" arrivalPos="291.17" arrivalSpeed="13.25" duration="2390.00" routeLength="6212.26" waitingTime="300.00" waitingCount="11" stopTime="1529.00" timeLoss="400.09" rerouteNo="1" devices="vehroute_199 tripinfo_199 emissions_199" vType="vecType" speedFactor="1.21" vaporized="">
        <emissions CO_abs="71320.443858" CO2_abs="2399604.209617" HC_abs="378.892258" PMx_abs="45.270219" NOx_abs="993.327356" fuel_abs="765382.321641" electricity_abs="0"/>
    </tripinfo>
    <tripinfo id="190" depart="18660.00" departLane="-206662304#13_0" departPos="5.10" departSpeed="0.00" departDelay="0.00" arrival="21135.00" arrivalLane="-206662304#13_0" arrivalPos="290.52" arrivalSpeed="8.54" duration="2475.00" routeLength="7813.84" waitingTime="358.00" waitingCount="15" stopTime="1151.00" timeLoss="487.08" rerouteNo="2" devices="vehroute_190 tripinfo_190 emissions_190" vType="vecType" speedFactor="0.84" vaporized="">
        <emissions CO_abs="97714.329118" CO2_abs="2970472.279175" HC_abs="513.055192" PMx_abs="52.491310" NOx_abs="1224.626947" fuel_abs="947476.442437" electricity_abs="0"/>
    </tripinfo>
    <tripinfo id="24" depart="18003.00" departLane="123867455_0" departPos="5.10" departSpeed="0.00" departDelay="3.00" arrival="21200.00" arrivalLane="123867455_0" arrivalPos="904.85" arrivalSpeed="22.85" duration="3197.00" routeLength="6219.34" waitingTime="269.00" waitingCount="12" stopTime="2295.00" timeLoss="384.31" rerouteNo="2" devices="vehroute_24 tripinfo_24 emissions_24" vType="vecType" speedFactor="0.83" vaporized="">
        <emissions CO_abs="77071.232765" CO2_abs="2438796.224938" HC_abs="406.934420" PMx_abs="47.450023" NOx_abs="1006.811443" fuel_abs="777885.156995" electricity_abs="0"/>
    </tripinfo>
    <tripinfo id="237" depart="19320.00" departLane="-88572874#1_0" departPos="5.10" departSpeed="0.00" departDelay="0.00" arrival="21259.00" arrivalLane="-88572874#1_0" arrivalPos="45.33" arrivalSpeed="9.62" duration="1939.00" routeLength="1446.37" waitingTime="66.00" waitingCount="4" stopTime="1694.00" timeLoss="105.27" rerouteNo="1" devices="vehroute_237 tripinfo_237 emissions_237" vType="vecType" speedFactor="0.91" vaporized="">
        <emissions CO_abs="19574.259763" CO2_abs="613524.068819" HC_abs="103.292398" PMx_abs="11.278363" NOx_abs="255.388469" fuel_abs="195691.799821" electricity_abs="0"/>
    </tripinfo>
    <tripinfo id="65" depart="18060.00" departLane="-27029204_0" departPos="5.10" departSpeed="0.00" departDelay="0.00" arrival="21312.00" arrivalLane="-27029204_0" arrivalPos="195.60" arrivalSpeed="8.93" duration="3252.00" routeLength="13497.73" waitingTime="125.00" waitingCount="4" stopTime="2218.00" timeLoss="212.77" rerouteNo="1" devices="vehroute_65 tripinfo_65 emissions_65" vType="vecType" speedFactor="0.88" vaporized="">
        <emissions CO_abs="57331.713499" CO2_abs="3224911.907442" HC_abs="334.631254" PMx_abs="57.840873" NOx_abs="1242.952406" fuel_abs="1028607.952520" electricity_abs="0"/>
    </tripinfo>
    <tripinfo id="116" depart="18240.00" departLane="48211196#5_0" departPos="5.10" departSpeed="0.00" departDelay="0.00" arrival="21336.00" arrivalLane="48211196#5_0" arrivalPos="146.73" arrivalSpeed="12.44" duration="3096.00" routeLength="10297.41" waitingTime="388.00" waitingCount="14" stopTime="1752.00" timeLoss="561.25" rerouteNo="2" devices="vehroute_116 tripinfo_116 emissions_116" vType="vecType" speedFactor="1.18" vaporized="">
        <emissions CO_abs="102821.331760" CO2_abs="3801012.885421" HC_abs="554.361148" PMx_abs="69.966415" NOx_abs="1565.061047" fuel_abs="1212373.749811" electricity_abs="0"/>
    </tripinfo>
    <tripinfo id="158" depart="18483.00" departLane="31129765_0" departPos="5.10" departSpeed="0.00" departDelay="3.00" arrival="21437.00" arrivalLane="31129765_0" arrivalPos="639.51" arrivalSpeed="20.11" duration="2954.00" routeLength="9813.28" waitingTime="443.00" waitingCount="15" stopTime="1613.00" timeLoss="570.84" rerouteNo="1" devices="vehroute_158 tripinfo_158 emissions_158" vType="vecType" speedFactor="0.90" vaporized="">
        <emissions CO_abs="110311.869923" CO2_abs="3598589.678170" HC_abs="585.209946" PMx_abs="68.224696" NOx_abs="1478.139655" fuel_abs="1147815.807669" electricity_abs="0"/>
    </tripinfo>
    <tripinfo id="41" depart="18003.00" departLane="144489137#0_0" departPos="5.10" departSpeed="0.00" departDelay="3.00" arrival="21584.00" arrivalLane="144489137#0_0" arrivalPos="135.49" arrivalSpeed="10.57" duration="3581.00" routeLength="5119.82" waitingTime="335.00" waitingCount="14" stopTime="2666.00" timeLoss="439.26" rerouteNo="1" devices="vehroute_41 tripinfo_41 emissions_41" vType="vecType" speedFactor="0.96" vaporized="">
        <emissions CO_abs="78909.765194" CO2_abs="2225776.201383" HC_abs="410.826741" PMx_abs="42.445324" NOx_abs="934.055466" fuel_abs="709944.906397" electricity_abs="0"/>
    </tripinfo>
    <tripinfo id="244" depart="19443.00" departLane="225806031#0_0" departPos="5.10" departSpeed="0.00" departDelay="3.00" arrival="21592.00" arrivalLane="225806031#0_0" arrivalPos="142.16" arrivalSpeed="13.04" duration="2149.00" routeLength="6716.89" waitingTime="402.00" waitingCount="17" stopTime="1106.00" timeLoss="540.08" rerouteNo="2" devices="vehroute_244 tripinfo_244 emissions_244" vType="vecType" speedFactor="1.19" vaporized="">
        <emissions CO_abs="94297.813708" CO2_abs="2903362.737470" HC_abs="495.274443" PMx_abs="56.527456" NOx_abs="1216.095639" fuel_abs="926065.046078" electricity_abs="0"/>
    </tripinfo>
    <tripinfo id="298" depart="19800.00" departLane="-33789567_0" departPos="5.10" departSpeed="0.00" departDelay="0.00" arrival="21614.00" arrivalLane="-33789567_0" arrivalPos="30.18" arrivalSpeed="10.97" duration="1814.00" routeLength="3006.77" waitingTime="82.00" waitingCount="4" stopTime="1426.00" timeLoss="133.15" rerouteNo="1" devices="vehroute_298 tripinfo_298 emissions_298" vType="vecType" speedFactor="1.06" vaporized="">
        <emissions CO_abs="25653.946732" CO2_abs="1030153.575055" HC_abs="140.429156" PMx_abs="17.881436" NOx_abs="418.881338" fuel_abs="328578.294938" electricity_abs="0"/>
    </tripinfo>
    <tripinfo id="235" depart="19200.00" departLane="-133755923#1_0" departPos="5.10" departSpeed="0.00" departDelay="0.00" arrival="21691.00" arrivalLane="-133755923#1_0" arrivalPos="271.43" arrivalSpeed="10.33" duration="2491.00" routeLength="8800.83" waitingTime="648.00" waitingCount="20" stopTime="907.00" timeLoss="821.58" rerouteNo="1" devices="vehroute_235 tripinfo_235 emissions_235" vType="vecType" speedFactor="1.03" vaporized="">
        <emissions CO_abs="145757.524112" CO2_abs="4113389.103230" HC_abs="759.014370" PMx_abs="79.862774" NOx_abs="1731.555798" fuel_abs="1312026.198862" electricity_abs="0"/>
    </tripinfo>
    <tripinfo id="126" depart="18240.00" departLane="-133755930#1_0" departPos="5.10" departSpeed="0.00" departDelay="0.00" arrival="21704.00" arrivalLane="-133755930#1_1" arrivalPos="16.00" arrivalSpeed="10.36" duration="3464.00" routeLength="5502.38" waitingTime="432.00" waitingCount="13" stopTime="2450.00" timeLoss="536.50" rerouteNo="2" devices="vehroute_126 tripinfo_126 emissions_126" vType="vecType" speedFactor="1.03" vaporized="">
        <emissions CO_abs="94154.005216" CO2_abs="2569335.591165" HC_abs="488.205885" PMx_abs="49.988058" NOx_abs="1081.828734" fuel_abs="819529.417238" electricity_abs="0"/>
    </tripinfo>
    <tripinfo id="228" depart="19080.00" departLane="144489137#3_0" departPos="5.10" departSpeed="0.00" departDelay="0.00" arrival="21749.00" arrivalLane="144489137#3_1" arrivalPos="146.43" arrivalSpeed="11.70" duration="2669.00" routeLength="2958.96" waitingTime="204.00" waitingCount="7" stopTime="2164.00" timeLoss="267.47" rerouteNo="2" devices="vehroute_228 tripinfo_228 emissions_228" vType="vecType" speedFactor="1.11" vaporized="">
        <emissions CO_abs="46796.650535" CO2_abs="1372927.019731" HC_abs="244.675584" PMx_abs="27.021685" NOx_abs="579.122655" fuel_abs="437913.798090" electricity_abs="0"/>
    </tripinfo>
    <tripinfo id="133" depart="18360.00" departLane="-27167281#1_0" departPos="5.10" departSpeed="0.00" departDelay="0.00" arrival="21816.00" arrivalLane="-27167281#1_0" arrivalPos="192.19" arrivalSpeed="6.27" duration="3456.00" routeLength="12787.03" waitingTime="307.00" waitingCount="9" stopTime="2355.00" timeLoss="420.11" rerouteNo="1" devices="vehroute_133 tripinfo_133 emissions_133" vType="vecType" speedFactor="1.04" vaporized="">
        <emissions CO_abs="95859.934040" CO2_abs="3901974.757264" HC_abs="529.308720" PMx_abs="79.901463" NOx_abs="1562.549962" fuel_abs="1244568.693283" electricity_abs="0"/>
    </tripinfo>
    <tripinfo id="25" depart="18003.00" departLane="-23883761_0" departPos="5.10" departSpeed="0.00" departDelay="3.00" arrival="21837.00" arrivalLane="-23883761_0" arrivalPos="197.88" arrivalSpeed="8.77" duration="3834.00" routeLength="7067.07" waitingTime="362.00" waitingCount="19" stopTime="2603.00" timeLoss="506.02" rerouteNo="2" devices="vehroute_25 tripinfo_25 emissions_25" vType="vecType" speedFactor="0.87" vaporized="">
        <emissions CO_abs="96280.553564" CO2_abs="2825057.019697" HC_abs="503.475508" PMx_abs="51.837505" NOx_abs="1175.956042" fuel_abs="901094.117039" electricity_abs="0"/>
    </tripinfo>
    <tripinfo id="261" depart="19443.00" departLane="-27167281#1_0" departPos="5.10" departSpeed="0.00" departDelay="3.00" arrival="21853.00" arrivalLane="-27167281#1_0" arrivalPos="192.19" arrivalSpeed="9.58" duration="2410.00" routeLength="6975.77" waitingTime="513.00" waitingCount="19" stopTime="1153.00" timeLoss="659.28" rerouteNo="1" devices="vehroute_261 tripinfo_261 emissions_261" vType="vecType" speedFactor="0.95" vaporized="">
        <emissions CO_abs="118450.793687" CO2_abs="3284612.625649" HC_abs="615.531706" PMx_abs="64.992448" NOx_abs="1386.691454" fuel_abs="1047675.787774" electricity_abs="0"/>
    </tripinfo>
    <tripinfo id="287" depart="19620.00" departLane="90077241_0" departPos="5.10" departSpeed="0.00" departDelay="0.00" arrival="21861.00" arrivalLane="90077241_0" arrivalPos="3225.35" arrivalSpeed="23.84" duration="2241.00" routeLength="12288.62" waitingTime="114.00" waitingCount="3" stopTime="1414.00" timeLoss="170.37" rerouteNo="1" devices="vehroute_287 tripinfo_287 emissions_287" vType="vecType" speedFactor="0.83" vaporized="">
        <emissions CO_abs="47801.437293" CO2_abs="2801905.497965" HC_abs="280.979665" PMx_abs="51.439696" NOx_abs="1068.011819" fuel_abs="893685.625633" electricity_abs="0"/>
    </tripinfo>
    <tripinfo id="30" depart="18000.00" departLane="-91181760#0_0" departPos="5.10" departSpeed="0.00" departDelay="0.00" arrival="21878.00" arrivalLane="-91181760#0_0" arrivalPos="79.70" arrivalSpeed="12.79" duration="3878.00" routeLength="3660.42" waitingTime="0.00" waitingCount="0" stopTime="3555.00" timeLoss="44.54" rerouteNo="1" devices="vehroute_30 tripinfo_30 emissions_30" vType="vecType" speedFactor="1.18" vaporized="">
        <emissions CO_abs="12022.463160" CO2_abs="964817.991998" HC_abs="76.358758" PMx_abs="15.205421" NOx_abs="379.045270" fuel_abs="307733.077528" electricity_abs="0"/>
    </tripinfo>
    <tripinfo id="300" depart="19800.00" departLane="-242896157#0_0" departPos="5.10" departSpeed="0.00" departDelay="0.00" arrival="21951.00" arrivalLane="-242896157#0_0" arrivalPos="109.29" arrivalSpeed="10.40" duration="2151.00" routeLength="7110.58" waitingTime="368.00" waitingCount="16" stopTime="1040.00" timeLoss="499.61" rerouteNo="2" devices="vehroute_300 tripinfo_300 emissions_300" vType="vecType" speedFactor="1.04" vaporized="">
        <emissions CO_abs="89423.422341" CO2_abs="2801212.548268" HC_abs="471.779699" PMx_abs="51.797579" NOx_abs="1161.034249" fuel_abs="893484.909663" electricity_abs="0"/>
    </tripinfo>
    <tripinfo id="220" depart="19020.00" departLane="-204967525_0" departPos="5.10" departSpeed="0.00" departDelay="0.00" arrival="21990.00" arrivalLane="-204967525_1" arrivalPos="146.26" arrivalSpeed="10.45" duration="2970.00" routeLength="7152.21" waitingTime="342.00" waitingCount="16" stopTime="1830.00" timeLoss="476.51" rerouteNo="1" devices="vehroute_220 tripinfo_220 emissions_220" vType="vecType" speedFactor="0.96" vaporized="">
        <emissions CO_abs="88367.896199" CO2_abs="2762381.166912" HC_abs="466.100250" PMx_abs="49.991042" NOx_abs="1141.189728" fuel_abs="881100.178090" electricity_abs="0"/>
    </tripinfo>
    <tripinfo id="111" depart="18180.00" departLane="-133755930#1_0" departPos="5.10" departSpeed="0.00" departDelay="0.00" arrival="22066.00" arrivalLane="-133755930#1_1" arrivalPos="16.00" arrivalSpeed="9.16" duration="3886.00" routeLength="4779.15" waitingTime="496.00" waitingCount="16" stopTime="2794.00" timeLoss="598.10" rerouteNo="1" devices="vehroute_111 tripinfo_111 emissions_111" vType="vecType" speedFactor="0.87" vaporized="">
        <emissions CO_abs="107361.909250" CO2_abs="2613530.811743" HC_abs="549.346632" PMx_abs="52.293550" NOx_abs="1115.530395" fuel_abs="833631.400613" electricity_abs="0"/>
    </tripinfo>
    <tripinfo id="292" depart="19680.00" departLane="90077241_0" departPos="5.10" departSpeed="0.00" departDelay="0.00" arrival="22083.00" arrivalLane="90077241_1" arrivalPos="3225.35" arrivalSpeed="28.18" duration="2403.00" routeLength="13350.41" waitingTime="188.00" waitingCount="7" stopTime="1494.00" timeLoss="271.25" rerouteNo="2" devices="vehroute_292 tripinfo_292 emissions_292" vType="vecType" speedFactor="1.01" vaporized="">
        <emissions CO_abs="74086.077576" CO2_abs="3516871.696910" HC_abs="422.094547" PMx_abs="72.366920" NOx_abs="1373.579319" fuel_abs="1121731.476509" electricity_abs="0"/>
    </tripinfo>
    <tripinfo id="219" depart="19020.00" departLane="-24335483#9_0" departPos="5.10" departSpeed="0.00" departDelay="0.00" arrival="22124.00" arrivalLane="-24335483#9_0" arrivalPos="292.66" arrivalSpeed="10.23" duration="3104.00" routeLength="7462.12" waitingTime="367.00" waitingCount="12" stopTime="1965.00" timeLoss="487.03" rerouteNo="2" devices="vehroute_219 tripinfo_219 emissions_219" vType="vecType" speedFactor="1.02" vaporized="">
        <emissions CO_abs="89061.878710" CO2_abs="2862915.630925" HC_abs="471.586235" PMx_abs="52.495109" NOx_abs="1184.215539" fuel_abs="913164.913044" electricity_abs="0"/>
    </tripinfo>
    <tripinfo id="120" depart="18240.00" departLane="86303763#0_0" departPos="5.10" departSpeed="0.00" departDelay="0.00" arrival="22165.00" arrivalLane="86303763#0_0" arrivalPos="139.93" arrivalSpeed="10.08" duration="3925.00" routeLength="6293.95" waitingTime="519.00" waitingCount="18" stopTime="2672.00" timeLoss="656.31" rerouteNo="2" devices="vehroute_120 tripinfo_120 emissions_120" vType="vecType" speedFactor="0.94" vaporized="">
        <emissions CO_abs="117709.730121" CO2_abs="3111979.880310" HC_abs="608.088125" PMx_abs="60.961592" NOx_abs="1317.462517" fuel_abs="992615.700638" electricity_abs="0"/>
    </tripinfo>
    <tripinfo id="170" depart="18540.00" departLane="-204967525_0" departPos="5.10" departSpeed="0.00" departDelay="0.00" arrival="22169.00" arrivalLane="-204967525_1" arrivalPos="146.26" arrivalSpeed="10.75" duration="3629.00" routeLength="7410.83" waitingTime="296.00" waitingCount="16" stopTime="2545.00" timeLoss="443.12" rerouteNo="1" devices="vehroute_170 tripinfo_170 emissions_170" vType="vecType" speedFactor="1.03" vaporized="">