<?xml version="1.0" encoding="UTF-8"?>

<!-- generated on 2022-12-23 16:28:17 by Eclipse SUMO sumo Version 1.14.1
<configuration xmlns:xsi="http://www.w3.org/2001/XMLSchema-instance" xsi:noNamespaceSchemaLocation="http://sumo.dlr.de/xsd/sumoConfiguration.xsd">

    <input>
        <net-file value="./strategia2_config/../san_francisco.net.xml"/>
        <route-files value="./strategia2_config/../san_francisco.rou.xml"/>
        <additional-files value="./strategia2_config/../san_francisco.poly.xml,./strategia2_config/../parking_capacity_50%25/off_parking_50%25.add.xml,./strategia2_config/../parking_capacity_50%25/on_parking_50%25.add.xml"/>
    </input>

    <output>
        <emission-output value="./strategia2_config/../output/strategia2/50%25/emissions.xml"/>
        <tripinfo-output value="./strategia2_config/../output/strategia2/50%25/tripinfo.xml"/>
        <vehroute-output value="./strategia2_config/../output/strategia2/50%25/vehroute.xml"/>
        <stop-output value="./strategia2_config/../output/strategia2/50%25/stops.xml"/>
        <collision-output value="./strategia2_config/../output/strategia2/50%25/collision.xml"/>
        <statistic-output value="./strategia2_config/../output/strategia2/50%25/statistic.xml"/>
    </output>

    <time>
        <step-length value="1"/>
    </time>

    <processing>
        <ignore-route-errors value="false"/>
    </processing>

    <report>
        <verbose value="true"/>
        <xml-validation value="never"/>
    </report>

    <traci_server>
        <remote-port value="63002"/>
    </traci_server>

    <gui_only>
        <gui-settings-file value="./strategia2_config/../gui-settings.cfg"/>
        <start value="true"/>
    </gui_only>

</configuration>
-->

<tripinfos xmlns:xsi="http://www.w3.org/2001/XMLSchema-instance" xsi:noNamespaceSchemaLocation="http://sumo.dlr.de/xsd/tripinfo_file.xsd">
    <tripinfo id="0" depart="18000.00" departLane="123867455_0" departPos="5.10" departSpeed="0.00" departDelay="0.00" arrival="18695.00" arrivalLane="123867455_0" arrivalPos="904.85" arrivalSpeed="29.88" duration="695.00" routeLength="5901.75" waitingTime="169.00" waitingCount="7" stopTime="100.00" timeLoss="242.91" rerouteNo="2" devices="vehroute_0 tripinfo_0 emissions_0" vType="vecType" speedFactor="1.06" vaporized="">
        <emissions CO_abs="53061.280520" CO2_abs="2042650.539213" HC_abs="290.371718" PMx_abs="41.747445" NOx_abs="837.070325" fuel_abs="651521.695908" electricity_abs="0"/>
    </tripinfo>
    <tripinfo id="2" depart="18006.00" departLane="123867455_0" departPos="5.10" departSpeed="0.00" departDelay="6.00" arrival="18878.00" arrivalLane="123867455_0" arrivalPos="904.85" arrivalSpeed="29.05" duration="872.00" routeLength="6102.95" waitingTime="297.00" waitingCount="9" stopTime="100.00" timeLoss="384.86" rerouteNo="3" devices="vehroute_2 tripinfo_2 emissions_2" vType="vecType" speedFactor="1.01" vaporized="">
        <emissions CO_abs="74424.781080" CO2_abs="2405259.844167" HC_abs="395.870258" PMx_abs="49.524336" NOx_abs="997.502264" fuel_abs="767185.596165" electricity_abs="0"/>
    </tripinfo>
    <tripinfo id="3" depart="18009.00" departLane="123867455_0" departPos="5.10" departSpeed="0.00" departDelay="9.00" arrival="18878.00" arrivalLane="123867455_1" arrivalPos="904.85" arrivalSpeed="31.13" duration="869.00" routeLength="6102.95" waitingTime="290.00" waitingCount="9" stopTime="100.00" timeLoss="407.66" rerouteNo="3" devices="vehroute_3 tripinfo_3 emissions_3" vType="vecType" speedFactor="1.08" vaporized="">
        <emissions CO_abs="78402.877833" CO2_abs="2543232.334698" HC_abs="417.559269" PMx_abs="53.711152" NOx_abs="1061.256558" fuel_abs="811191.979698" electricity_abs="0"/>
    </tripinfo>
    <tripinfo id="1" depart="18003.00" departLane="123867455_0" departPos="5.10" departSpeed="0.00" departDelay="3.00" arrival="18886.00" arrivalLane="123867455_0" arrivalPos="904.85" arrivalSpeed="26.39" duration="883.00" routeLength="6102.95" waitingTime="279.00" waitingCount="10" stopTime="100.00" timeLoss="366.71" rerouteNo="3" devices="vehroute_1 tripinfo_1 emissions_1" vType="vecType" speedFactor="0.94" vaporized="">
        <emissions CO_abs="71534.295240" CO2_abs="2346630.011279" HC_abs="380.683513" PMx_abs="46.881791" NOx_abs="966.186841" fuel_abs="748485.585307" electricity_abs="0"/>
    </tripinfo>
</tripinfos>
