<?xml version="1.0" encoding="UTF-8"?>

<!-- generated on 2022-12-23 14:41:10 by Eclipse SUMO sumo Version 1.14.1
<configuration xmlns:xsi="http://www.w3.org/2001/XMLSchema-instance" xsi:noNamespaceSchemaLocation="http://sumo.dlr.de/xsd/sumoConfiguration.xsd">

    <input>
        <net-file value="./strategia2_config/../san_francisco.net.xml"/>
        <route-files value="./strategia2_config/../san_francisco.rou.xml"/>
        <additional-files value="./strategia2_config/../san_francisco.poly.xml,./strategia2_config/../parking_capacity_50%25/off_parking_50%25.add.xml,./strategia2_config/../parking_capacity_50%25/on_parking_50%25.add.xml"/>
    </input>

    <output>
        <emission-output value="./strategia2_config/../output/strategia2/50%25/emissions.xml"/>
        <tripinfo-output value="./strategia2_config/../output/strategia2/50%25/tripinfo.xml"/>
        <vehroute-output value="./strategia2_config/../output/strategia2/50%25/vehroute.xml"/>
        <stop-output value="./strategia2_config/../output/strategia2/50%25/stops.xml"/>
        <collision-output value="./strategia2_config/../output/strategia2/50%25/collision.xml"/>
        <statistic-output value="./strategia2_config/../output/strategia2/50%25/statistic.xml"/>
    </output>

    <time>
        <step-length value="1"/>
    </time>

    <processing>
        <ignore-route-errors value="false"/>
    </processing>

    <report>
        <verbose value="true"/>
        <xml-validation value="never"/>
    </report>

    <traci_server>
        <remote-port value="55072"/>
    </traci_server>

    <gui_only>
        <gui-settings-file value="./strategia2_config/../gui-settings.cfg"/>
        <start value="true"/>
    </gui_only>

</configuration>
-->

<routes xmlns:xsi="http://www.w3.org/2001/XMLSchema-instance" xsi:noNamespaceSchemaLocation="http://sumo.dlr.de/xsd/routes_file.xsd">
    <vehicle id="0" type="vecType" depart="18000.00" arrival="18604.00">
        <routeDistribution>
            <route replacedOnEdge="255330036#10" replacedOnIndex="11" reason="traci:setRoute" replacedAtTime="18280.00" probability="0" edges="123867455 8920391#0 255330048 255351721#0 -27656675 26943623 -111550911#3 -111550911#2 -111550911#1 -111550911#0 -88559680#5 255330036#10 255330036#11"/>
            <route replacedOnEdge="255330036#13" replacedOnIndex="14" reason="traci:changeTarget" replacedAtTime="18314.00" probability="0" edges="123867455 8920391#0 255330048 255351721#0 -27656675 26943623 -111550911#3 -111550911#2 -111550911#1 -111550911#0 -88559680#5 255330036#10 255330036#11 255330036#12 255330036#13"/>
            <route edges="123867455 8920391#0 255330048 255351721#0 -27656675 26943623 -111550911#3 -111550911#2 -111550911#1 -111550911#0 -88559680#5 255330036#10 255330036#11 255330036#12 255330036#13 255330057#0 8920394#0 8920394#1 27145438#0 255330047#0 30454437 gneE21 123867455"/>
        </routeDistribution>
        <stop parkingArea="parkingArea_255330036#13_0_94" duration="100.00" parking="1"/>
    </vehicle>

    <vehicle id="2" type="vecType" depart="18006.00" arrival="18699.00">
        <routeDistribution>
            <route replacedOnEdge="255330036#10" replacedOnIndex="11" reason="traci:setRoute" replacedAtTime="18373.00" probability="0" edges="123867455 8920391#0 255330048 255351721#0 -27656675 26943623 -111550911#3 -111550911#2 -111550911#1 -111550911#0 -88559680#5 255330036#10 255330036#11"/>
            <route replacedOnEdge="255330036#13" replacedOnIndex="14" reason="traci:changeTarget" replacedAtTime="18412.00" probability="0" edges="123867455 8920391#0 255330048 255351721#0 -27656675 26943623 -111550911#3 -111550911#2 -111550911#1 -111550911#0 -88559680#5 255330036#10 255330036#11 255330036#12 255330036#13"/>
            <route edges="123867455 8920391#0 255330048 255351721#0 -27656675 26943623 -111550911#3 -111550911#2 -111550911#1 -111550911#0 -88559680#5 255330036#10 255330036#11 255330036#12 255330036#13 255330057#0 8920394#0 8920394#1 27145438#0 255330047#0 30454437 gneE21 123867455"/>
        </routeDistribution>
        <stop parkingArea="parkingArea_255330036#13_0_94" duration="100.00" parking="1"/>
    </vehicle>

    <vehicle id="1" type="vecType" depart="18003.00" arrival="18708.00">
        <routeDistribution>
            <route replacedOnEdge="255330036#10" replacedOnIndex="11" reason="traci:setRoute" replacedAtTime="18367.00" probability="0" edges="123867455 8920391#0 255330048 255351721#0 -27656675 26943623 -111550911#3 -111550911#2 -111550911#1 -111550911#0 -88559680#5 255330036#10 255330036#11"/>
            <route replacedOnEdge="255330036#13" replacedOnIndex="14" reason="traci:changeTarget" replacedAtTime="18407.00" probability="0" edges="123867455 8920391#0 255330048 255351721#0 -27656675 26943623 -111550911#3 -111550911#2 -111550911#1 -111550911#0 -88559680#5 255330036#10 255330036#11 255330036#12 255330036#13"/>
            <route edges="123867455 8920391#0 255330048 255351721#0 -27656675 26943623 -111550911#3 -111550911#2 -111550911#1 -111550911#0 -88559680#5 255330036#10 255330036#11 255330036#12 255330036#13 255330057#0 8920394#0 8920394#1 27145438#0 255330047#0 30454437 gneE21 123867455"/>
        </routeDistribution>
        <stop parkingArea="parkingArea_255330036#13_0_94" duration="100.00" parking="1"/>
    </vehicle>

    <vehicle id="3" type="vecType" depart="18009.00" arrival="18787.00">
        <routeDistribution>
            <route replacedOnEdge="255330036#10" replacedOnIndex="11" reason="traci:setRoute" replacedAtTime="18458.00" probability="0" edges="123867455 8920391#0 255330048 255351721#0 -27656675 26943623 -111550911#3 -111550911#2 -111550911#1 -111550911#0 -88559680#5 255330036#10 255330036#11"/>
            <route replacedOnEdge="255330036#13" replacedOnIndex="14" reason="traci:changeTarget" replacedAtTime="18501.00" probability="0" edges="123867455 8920391#0 255330048 255351721#0 -27656675 26943623 -111550911#3 -111550911#2 -111550911#1 -111550911#0 -88559680#5 255330036#10 255330036#11 255330036#12 255330036#13"/>
            <route edges="123867455 8920391#0 255330048 255351721#0 -27656675 26943623 -111550911#3 -111550911#2 -111550911#1 -111550911#0 -88559680#5 255330036#10 255330036#11 255330036#12 255330036#13 255330057#0 8920394#0 8920394#1 27145438#0 255330047#0 30454437 gneE21 123867455"/>
        </routeDistribution>
        <stop parkingArea="parkingArea_255330036#13_0_94" duration="100.00" parking="1"/>
    </vehicle>

    <vehicle id="4" type="vecType" depart="18012.00" arrival="18788.00">
        <routeDistribution>
            <route replacedOnEdge="255330036#10" replacedOnIndex="11" reason="traci:setRoute" replacedAtTime="18462.00" probability="0" edges="123867455 8920391#0 255330048 255351721#0 -27656675 26943623 -111550911#3 -111550911#2 -111550911#1 -111550911#0 -88559680#5 255330036#10 255330036#11"/>
            <route replacedOnEdge="255330036#13" replacedOnIndex="14" reason="traci:changeTarget" replacedAtTime="18507.00" probability="0" edges="123867455 8920391#0 255330048 255351721#0 -27656675 26943623 -111550911#3 -111550911#2 -111550911#1 -111550911#0 -88559680#5 255330036#10 255330036#11 255330036#12 255330036#13"/>
            <route edges="123867455 8920391#0 255330048 255351721#0 -27656675 26943623 -111550911#3 -111550911#2 -111550911#1 -111550911#0 -88559680#5 255330036#10 255330036#11 255330036#12 255330036#13 255330057#0 8920394#0 8920394#1 27145438#0 255330047#0 30454437 gneE21 123867455"/>
        </routeDistribution>
        <stop parkingArea="parkingArea_255330036#13_0_94" duration="100.00" parking="1"/>
    </vehicle>

    <vehicle id="17" type="vecType" depart="18051.00" arrival="18800.00">
        <routeDistribution>
            <route replacedOnEdge="255330036#10" replacedOnIndex="11" reason="traci:setRoute" replacedAtTime="18456.00" probability="0" edges="123867455 8920391#0 255330048 255351721#0 -27656675 26943623 -111550911#3 -111550911#2 -111550911#1 -111550911#0 -88559680#5 255330036#10 255330036#11"/>
            <route replacedOnEdge="255330036#13" replacedOnIndex="14" reason="traci:changeTarget" replacedAtTime="18496.00" probability="0" edges="123867455 8920391#0 255330048 255351721#0 -27656675 26943623 -111550911#3 -111550911#2 -111550911#1 -111550911#0 -88559680#5 255330036#10 255330036#11 255330036#12 255330036#13"/>
            <route edges="123867455 8920391#0 255330048 255351721#0 -27656675 26943623 -111550911#3 -111550911#2 -111550911#1 -111550911#0 -88559680#5 255330036#10 255330036#11 255330036#12 255330036#13 255330057#0 8920394#0 8920394#1 27145438#0 255330047#0 30454437 gneE21 123867455"/>
        </routeDistribution>
        <stop parkingArea="parkingArea_255330036#13_0_94" duration="100.00" parking="1"/>
    </vehicle>

    <vehicle id="6" type="vecType" depart="18018.00" arrival="18876.00">
        <routeDistribution>
            <route replacedOnEdge="255330036#10" replacedOnIndex="11" reason="traci:setRoute" replacedAtTime="18550.00" probability="0" edges="123867455 8920391#0 255330048 255351721#0 -27656675 26943623 -111550911#3 -111550911#2 -111550911#1 -111550911#0 -88559680#5 255330036#10 255330036#11"/>
            <route replacedOnEdge="255330036#13" replacedOnIndex="14" reason="traci:changeTarget" replacedAtTime="18596.00" probability="0" edges="123867455 8920391#0 255330048 255351721#0 -27656675 26943623 -111550911#3 -111550911#2 -111550911#1 -111550911#0 -88559680#5 255330036#10 255330036#11 255330036#12 255330036#13"/>
            <route edges="123867455 8920391#0 255330048 255351721#0 -27656675 26943623 -111550911#3 -111550911#2 -111550911#1 -111550911#0 -88559680#5 255330036#10 255330036#11 255330036#12 255330036#13 255330057#0 8920394#0 8920394#1 27145438#0 255330047#0 30454437 gneE21 123867455"/>
        </routeDistribution>
        <stop parkingArea="parkingArea_255330036#13_0_94" duration="100.00" parking="1"/>
    </vehicle>

    <vehicle id="5" type="vecType" depart="18015.00" arrival="18900.00">
        <routeDistribution>
            <route replacedOnEdge="255330036#10" replacedOnIndex="11" reason="traci:setRoute" replacedAtTime="18547.00" probability="0" edges="123867455 8920391#0 255330048 255351721#0 -27656675 26943623 -111550911#3 -111550911#2 -111550911#1 -111550911#0 -88559680#5 255330036#10 255330036#11"/>
            <route replacedOnEdge="255330036#13" replacedOnIndex="14" reason="traci:changeTarget" replacedAtTime="18591.00" probability="0" edges="123867455 8920391#0 255330048 255351721#0 -27656675 26943623 -111550911#3 -111550911#2 -111550911#1 -111550911#0 -88559680#5 255330036#10 255330036#11 255330036#12 255330036#13"/>
            <route edges="123867455 8920391#0 255330048 255351721#0 -27656675 26943623 -111550911#3 -111550911#2 -111550911#1 -111550911#0 -88559680#5 255330036#10 255330036#11 255330036#12 255330036#13 255330057#0 8920394#0 8920394#1 27145438#0 255330047#0 30454437 gneE21 123867455"/>
        </routeDistribution>
        <stop parkingArea="parkingArea_255330036#13_0_94" duration="100.00" parking="1"/>
    </vehicle>

    <vehicle id="7" type="vecType" depart="18021.00" arrival="18983.00">
        <routeDistribution>
            <route replacedOnEdge="255330036#10" replacedOnIndex="11" reason="traci:setRoute" replacedAtTime="18637.00" probability="0" edges="123867455 8920391#0 255330048 255351721#0 -27656675 26943623 -111550911#3 -111550911#2 -111550911#1 -111550911#0 -88559680#5 255330036#10 255330036#11"/>
            <route replacedOnEdge="255330036#13" replacedOnIndex="14" reason="traci:changeTarget" replacedAtTime="18678.00" probability="0" edges="123867455 8920391#0 255330048 255351721#0 -27656675 26943623 -111550911#3 -111550911#2 -111550911#1 -111550911#0 -88559680#5 255330036#10 255330036#11 255330036#12 255330036#13"/>
            <route edges="123867455 8920391#0 255330048 255351721#0 -27656675 26943623 -111550911#3 -111550911#2 -111550911#1 -111550911#0 -88559680#5 255330036#10 255330036#11 255330036#12 255330036#13 255330057#0 8920394#0 8920394#1 27145438#0 255330047#0 30454437 gneE21 123867455"/>
        </routeDistribution>
        <stop parkingArea="parkingArea_255330036#13_0_94" duration="100.00" parking="1"/>
    </vehicle>

    <vehicle id="10" type="vecType" depart="18030.00" arrival="19322.00">
        <routeDistribution>
            <route replacedOnEdge="255330036#10" replacedOnIndex="11" reason="traci:setRoute" replacedAtTime="18731.00" probability="0" edges="123867455 8920391#0 255330048 255351721#0 -27656675 26943623 -111550911#3 -111550911#2 -111550911#1 -111550911#0 -88559680#5 255330036#10 255330036#11"/>
            <route replacedOnEdge="255330036#13" replacedOnIndex="14" reason="traci:setRoute" replacedAtTime="18766.00" probability="0" edges="123867455 8920391#0 255330048 255351721#0 -27656675 26943623 -111550911#3 -111550911#2 -111550911#1 -111550911#0 -88559680#5 255330036#10 255330036#11 255330036#12 255330036#13"/>
            <route replacedOnEdge="255330036#13" replacedOnIndex="14" reason="traci:changeTarget" replacedAtTime="18774.00" probability="0" edges="123867455 8920391#0 255330048 255351721#0 -27656675 26943623 -111550911#3 -111550911#2 -111550911#1 -111550911#0 -88559680#5 255330036#10 255330036#11 255330036#12 255330036#13 -255330036#13 -255330036#12"/>
            <route edges="123867455 8920391#0 255330048 255351721#0 -27656675 26943623 -111550911#3 -111550911#2 -111550911#1 -111550911#0 -88559680#5 255330036#10 255330036#11 255330036#12 255330036#13 255330057#0 8920394#0 8920394#1 27145438#0 255330047#0 30454437 gneE21 123867455"/>
        </routeDistribution>
        <stop parkingArea="parkingArea_255330036#13_0_94" duration="100.00" parking="1"/>
    </vehicle>

    <vehicle id="19" type="vecType" depart="18057.00" arrival="19324.00">
        <routeDistribution>
            <route replacedOnEdge="255330036#10" replacedOnIndex="11" reason="traci:setRoute" replacedAtTime="18911.00" probability="0" edges="123867455 8920391#0 255330048 255351721#0 -27656675 26943623 -111550911#3 -111550911#2 -111550911#1 -111550911#0 -88559680#5 255330036#10 255330036#11"/>
            <route replacedOnEdge="255330036#13" replacedOnIndex="14" reason="traci:changeTarget" replacedAtTime="18952.00" probability="0" edges="123867455 8920391#0 255330048 255351721#0 -27656675 26943623 -111550911#3 -111550911#2 -111550911#1 -111550911#0 -88559680#5 255330036#10 255330036#11 255330036#12 255330036#13"/>
            <route edges="123867455 8920391#0 255330048 255351721#0 -27656675 26943623 -111550911#3 -111550911#2 -111550911#1 -111550911#0 -88559680#5 255330036#10 255330036#11 255330036#12 255330036#13 255330057#0 8920394#0 8920394#1 27145438#0 255330047#0 30454437 gneE21 123867455"/>
        </routeDistribution>
        <stop parkingArea="parkingArea_255330036#13_0_94" duration="100.00" parking="1"/>
    </vehicle>

    <vehicle id="12" type="vecType" depart="18036.00" arrival="19328.00">
        <routeDistribution>
            <route replacedOnEdge="255330036#10" replacedOnIndex="11" reason="traci:setRoute" replacedAtTime="18821.00" probability="0" edges="123867455 8920391#0 255330048 255351721#0 -27656675 26943623 -111550911#3 -111550911#2 -111550911#1 -111550911#0 -88559680#5 255330036#10 255330036#11"/>
            <route replacedOnEdge="255330036#13" replacedOnIndex="14" reason="traci:setRoute" replacedAtTime="18850.00" probability="0" edges="123867455 8920391#0 255330048 255351721#0 -27656675 26943623 -111550911#3 -111550911#2 -111550911#1 -111550911#0 -88559680#5 255330036#10 255330036#11 255330036#12 255330036#13"/>
            <route replacedOnEdge="255330036#13" replacedOnIndex="14" reason="traci:changeTarget" replacedAtTime="18858.00" probability="0" edges="123867455 8920391#0 255330048 255351721#0 -27656675 26943623 -111550911#3 -111550911#2 -111550911#1 -111550911#0 -88559680#5 255330036#10 255330036#11 255330036#12 255330036#13 -255330036#13 -255330036#12"/>
            <route edges="123867455 8920391#0 255330048 255351721#0 -27656675 26943623 -111550911#3 -111550911#2 -111550911#1 -111550911#0 -88559680#5 255330036#10 255330036#11 255330036#12 255330036#13 255330057#0 8920394#0 8920394#1 27145438#0 255330047#0 30454437 gneE21 123867455"/>
        </routeDistribution>
        <stop parkingArea="parkingArea_255330036#13_0_94" duration="100.00" parking="1"/>
    </vehicle>

    <vehicle id="13" type="vecType" depart="18039.00" arrival="19329.00">
        <routeDistribution>
            <route replacedOnEdge="255330036#10" replacedOnIndex="11" reason="traci:setRoute" replacedAtTime="18816.00" probability="0" edges="123867455 8920391#0 255330048 255351721#0 -27656675 26943623 -111550911#3 -111550911#2 -111550911#1 -111550911#0 -88559680#5 255330036#10 255330036#11"/>
            <route replacedOnEdge="255330036#13" replacedOnIndex="14" reason="traci:changeTarget" replacedAtTime="18850.00" probability="0" edges="123867455 8920391#0 255330048 255351721#0 -27656675 26943623 -111550911#3 -111550911#2 -111550911#1 -111550911#0 -88559680#5 255330036#10 255330036#11 255330036#12 255330036#13"/>
            <route edges="123867455 8920391#0 255330048 255351721#0 -27656675 26943623 -111550911#3 -111550911#2 -111550911#1 -111550911#0 -88559680#5 255330036#10 255330036#11 255330036#12 255330036#13 255330057#0 8920394#0 8920394#1 27145438#0 255330047#0 30454437 gneE21 123867455"/>
        </routeDistribution>
        <stop parkingArea="parkingArea_255330036#13_0_94" duration="100.00" parking="1"/>
    </vehicle>

    <vehicle id="8" type="vecType" depart="18024.00" arrival="19341.00">
        <routeDistribution>
            <route replacedOnEdge="255330036#10" replacedOnIndex="11" reason="traci:setRoute" replacedAtTime="18727.00" probability="0" edges="123867455 8920391#0 255330048 255351721#0 -27656675 26943623 -111550911#3 -111550911#2 -111550911#1 -111550911#0 -88559680#5 255330036#10 255330036#11"/>
            <route replacedOnEdge="255330036#13" replacedOnIndex="14" reason="traci:changeTarget" replacedAtTime="18766.00" probability="0" edges="123867455 8920391#0 255330048 255351721#0 -27656675 26943623 -111550911#3 -111550911#2 -111550911#1 -111550911#0 -88559680#5 255330036#10 255330036#11 255330036#12 255330036#13"/>
            <route edges="123867455 8920391#0 255330048 255351721#0 -27656675 26943623 -111550911#3 -111550911#2 -111550911#1 -111550911#0 -88559680#5 255330036#10 255330036#11 255330036#12 255330036#13 255330057#0 8920394#0 8920394#1 27145438#0 255330047#0 30454437 gneE21 123867455"/>
        </routeDistribution>
        <stop parkingArea="parkingArea_255330036#13_0_94" duration="100.00" parking="1"/>
    </vehicle>

    <vehicle id="11" type="vecType" depart="18033.00" arrival="19418.00">
        <routeDistribution>
            <route replacedOnEdge="255330036#10" replacedOnIndex="11" reason="traci:setRoute" replacedAtTime="18733.00" probability="0" edges="123867455 8920391#0 255330048 255351721#0 -27656675 26943623 -111550911#3 -111550911#2 -111550911#1 -111550911#0 -88559680#5 255330036#10 255330036#11"/>
            <route replacedOnEdge="255330036#13" replacedOnIndex="14" reason="traci:setRoute" replacedAtTime="18766.00" probability="0" edges="123867455 8920391#0 255330048 255351721#0 -27656675 26943623 -111550911#3 -111550911#2 -111550911#1 -111550911#0 -88559680#5 255330036#10 255330036#11 255330036#12 255330036#13"/>
            <route replacedOnEdge="-255330036#13" replacedOnIndex="15" reason="traci:changeTarget" replacedAtTime="19097.00" probability="0" edges="123867455 8920391#0 255330048 255351721#0 -27656675 26943623 -111550911#3 -111550911#2 -111550911#1 -111550911#0 -88559680#5 255330036#10 255330036#11 255330036#12 255330036#13 -255330036#13 -255330036#12"/>
            <route edges="123867455 8920391#0 255330048 255351721#0 -27656675 26943623 -111550911#3 -111550911#2 -111550911#1 -111550911#0 -88559680#5 255330036#10 255330036#11 255330036#12 255330036#13 -255330036#13 -255330036#12 -255330036#11 -255330036#10 88559680#5 224384059#0 8920394#1 27145438#0 255330047#0 30454437 gneE21 123867455"/>
        </routeDistribution>
        <stop parkingArea="parkingArea_-255330036#13_0_407" duration="100.00" parking="1"/>
    </vehicle>

    <vehicle id="14" type="vecType" depart="18042.00" arrival="19428.00">
        <routeDistribution>
            <route replacedOnEdge="255330036#10" replacedOnIndex="11" reason="traci:setRoute" replacedAtTime="18907.00" probability="0" edges="123867455 8920391#0 255330048 255351721#0 -27656675 26943623 -111550911#3 -111550911#2 -111550911#1 -111550911#0 -88559680#5 255330036#10 255330036#11"/>
            <route replacedOnEdge="255330036#13" replacedOnIndex="14" reason="traci:changeTarget" replacedAtTime="18945.00" probability="0" edges="123867455 8920391#0 255330048 255351721#0 -27656675 26943623 -111550911#3 -111550911#2 -111550911#1 -111550911#0 -88559680#5 255330036#10 255330036#11 255330036#12 255330036#13"/>
            <route edges="123867455 8920391#0 255330048 255351721#0 -27656675 26943623 -111550911#3 -111550911#2 -111550911#1 -111550911#0 -88559680#5 255330036#10 255330036#11 255330036#12 255330036#13 255330057#0 8920394#0 8920394#1 27145438#0 255330047#0 30454437 gneE21 123867455"/>
        </routeDistribution>
        <stop parkingArea="parkingArea_255330036#13_0_94" duration="100.00" parking="1"/>
    </vehicle>

    <vehicle id="15" type="vecType" depart="18045.00" arrival="19430.00">
        <routeDistribution>
            <route replacedOnEdge="255330036#10" replacedOnIndex="11" reason="traci:setRoute" replacedAtTime="18910.00" probability="0" edges="123867455 8920391#0 255330048 255351721#0 -27656675 26943623 -111550911#3 -111550911#2 -111550911#1 -111550911#0 -88559680#5 255330036#10 255330036#11"/>
            <route replacedOnEdge="255330036#13" replacedOnIndex="14" reason="traci:changeTarget" replacedAtTime="18949.00" probability="0" edges="123867455 8920391#0 255330048 255351721#0 -27656675 26943623 -111550911#3 -111550911#2 -111550911#1 -111550911#0 -88559680#5 255330036#10 255330036#11 255330036#12 255330036#13"/>
            <route edges="123867455 8920391#0 255330048 255351721#0 -27656675 26943623 -111550911#3 -111550911#2 -111550911#1 -111550911#0 -88559680#5 255330036#10 255330036#11 255330036#12 255330036#13 255330057#0 8920394#0 8920394#1 27145438#0 255330047#0 30454437 gneE21 123867455"/>
        </routeDistribution>
        <stop parkingArea="parkingArea_255330036#13_0_94" duration="100.00" parking="1"/>
    </vehicle>

    <vehicle id="18" type="vecType" depart="18054.00" arrival="19435.00">
        <routeDistribution>
            <route replacedOnEdge="255330036#10" replacedOnIndex="11" reason="traci:setRoute" replacedAtTime="19087.00" probability="0" edges="123867455 8920391#0 255330048 255351721#0 -27656675 26943623 -111550911#3 -111550911#2 -111550911#1 -111550911#0 -88559680#5 255330036#10 255330036#11"/>
            <route replacedOnEdge="255330036#13" replacedOnIndex="14" reason="traci:changeTarget" replacedAtTime="19127.00" probability="0" edges="123867455 8920391#0 255330048 255351721#0 -27656675 26943623 -111550911#3 -111550911#2 -111550911#1 -111550911#0 -88559680#5 255330036#10 255330036#11 255330036#12 255330036#13"/>
            <route edges="123867455 8920391#0 255330048 255351721#0 -27656675 26943623 -111550911#3 -111550911#2 -111550911#1 -111550911#0 -88559680#5 255330036#10 255330036#11 255330036#12 255330036#13 255330057#0 8920394#0 8920394#1 27145438#0 255330047#0 30454437 gneE21 123867455"/>
        </routeDistribution>
        <stop parkingArea="parkingArea_255330036#13_0_94" duration="100.00" parking="1"/>
    </vehicle>

    <vehicle id="9" type="vecType" depart="18027.00" arrival="19440.00">
        <routeDistribution>
            <route replacedOnEdge="255330036#10" replacedOnIndex="11" reason="traci:setRoute" replacedAtTime="18729.00" probability="0" edges="123867455 8920391#0 255330048 255351721#0 -27656675 26943623 -111550911#3 -111550911#2 -111550911#1 -111550911#0 -88559680#5 255330036#10 255330036#11"/>
            <route replacedOnEdge="255330036#13" replacedOnIndex="14" reason="traci:changeTarget" replacedAtTime="18771.00" probability="0" edges="123867455 8920391#0 255330048 255351721#0 -27656675 26943623 -111550911#3 -111550911#2 -111550911#1 -111550911#0 -88559680#5 255330036#10 255330036#11 255330036#12 255330036#13"/>
            <route edges="123867455 8920391#0 255330048 255351721#0 -27656675 26943623 -111550911#3 -111550911#2 -111550911#1 -111550911#0 -88559680#5 255330036#10 255330036#11 255330036#12 255330036#13 255330057#0 8920394#0 8920394#1 27145438#0 255330047#0 30454437 gneE21 123867455"/>
        </routeDistribution>
        <stop parkingArea="parkingArea_255330036#13_0_94" duration="100.00" parking="1"/>
    </vehicle>

    <vehicle id="16" type="vecType" depart="18048.00" arrival="19441.00">
        <routeDistribution>
            <route replacedOnEdge="255330036#10" replacedOnIndex="11" reason="traci:setRoute" replacedAtTime="18997.00" probability="0" edges="123867455 8920391#0 255330048 255351721#0 -27656675 26943623 -111550911#3 -111550911#2 -111550911#1 -111550911#0 -88559680#5 255330036#10 255330036#11"/>
            <route replacedOnEdge="255330036#13" replacedOnIndex="14" reason="traci:changeTarget" replacedAtTime="19039.00" probability="0" edges="123867455 8920391#0 255330048 255351721#0 -27656675 26943623 -111550911#3 -111550911#2 -111550911#1 -111550911#0 -88559680#5 255330036#10 255330036#11 255330036#12 255330036#13"/>
            <route edges="123867455 8920391#0 255330048 255351721#0 -27656675 26943623 -111550911#3 -111550911#2 -111550911#1 -111550911#0 -88559680#5 255330036#10 255330036#11 255330036#12 255330036#13 255330057#0 8920394#0 8920394#1 27145438#0 255330047#0 30454437 gneE21 123867455"/>
        </routeDistribution>
        <stop parkingArea="parkingArea_255330036#13_0_94" duration="100.00" parking="1"/>
    </vehicle>

</routes>
