<?xml version="1.0" encoding="UTF-8"?>

<!-- generated on 2023-01-10 07:32:00 by Eclipse SUMO sumo Version 1.14.1
<configuration xmlns:xsi="http://www.w3.org/2001/XMLSchema-instance" xsi:noNamespaceSchemaLocation="http://sumo.dlr.de/xsd/sumoConfiguration.xsd">

    <input>
        <net-file value="./strategia3_config/../san_francisco.net.xml"/>
        <route-files value="./strategia3_config/../san_francisco.rou.xml"/>
        <additional-files value="./strategia3_config/../san_francisco.poly.xml,./strategia3_config/../parking_capacity_100%25/off_parking_100%25.add.xml,./strategia3_config/../parking_capacity_100%25/on_parking_100%25.add.xml"/>
    </input>

    <output>
        <emission-output value="./strategia3_config/../output/strategia3/100%25/emissions.xml"/>
        <tripinfo-output value="./strategia3_config/../output/strategia3/100%25/tripinfo.xml"/>
        <vehroute-output value="./strategia3_config/../output/strategia3/100%25/vehroute.xml"/>
        <stop-output value="./strategia3_config/../output/strategia3/100%25/stops.xml"/>
        <collision-output value="./strategia3_config/../output/strategia3/100%25/collision.xml"/>
        <statistic-output value="./strategia3_config/../output/strategia3/100%25/statistic.xml"/>
    </output>

    <time>
        <step-length value="1"/>
    </time>

    <processing>
        <ignore-route-errors value="false"/>
    </processing>

    <report>
        <verbose value="true"/>
        <xml-validation value="never"/>
    </report>

    <traci_server>
        <remote-port value="49872"/>
    </traci_server>

    <gui_only>
        <gui-settings-file value="./strategia3_config/../gui-settings.cfg"/>
        <start value="true"/>
    </gui_only>

</configuration>
-->

<tripinfos xmlns:xsi="http://www.w3.org/2001/XMLSchema-instance" xsi:noNamespaceSchemaLocation="http://sumo.dlr.de/xsd/tripinfo_file.xsd">
    <tripinfo id="132" depart="18300.00" departLane="142972028#1_0" departPos="5.10" departSpeed="0.00" departDelay="0.00" arrival="20024.00" arrivalLane="142972028#1_0" arrivalPos="161.20" arrivalSpeed="9.97" duration="1724.00" routeLength="5496.80" waitingTime="106.00" waitingCount="4" stopTime="1098.00" timeLoss="174.75" rerouteNo="2" devices="vehroute_132 tripinfo_132 emissions_132" vType="vecType" speedFactor="0.96" vaporized="">
        <emissions CO_abs="36957.852111" CO2_abs="1641371.518553" HC_abs="205.644187" PMx_abs="27.585500" NOx_abs="655.313356" fuel_abs="523531.510594" electricity_abs="0"/>
    </tripinfo>
    <tripinfo id="5" depart="18000.00" departLane="-23883760_0" departPos="5.10" departSpeed="0.00" departDelay="0.00" arrival="20103.00" arrivalLane="-23883760_0" arrivalPos="242.29" arrivalSpeed="9.02" duration="2103.00" routeLength="5984.65" waitingTime="245.00" waitingCount="9" stopTime="1121.00" timeLoss="337.47" rerouteNo="1" devices="vehroute_5 tripinfo_5 emissions_5" vType="vecType" speedFactor="0.83" vaporized="">
        <emissions CO_abs="68734.234961" CO2_abs="2153831.316730" HC_abs="362.327313" PMx_abs="37.519863" NOx_abs="884.584964" fuel_abs="686995.885431" electricity_abs="0"/>
    </tripinfo>
    <tripinfo id="140" depart="18420.00" departLane="-35977367#2_0" departPos="5.10" departSpeed="0.00" departDelay="0.00" arrival="20290.00" arrivalLane="-35977367#2_0" arrivalPos="431.73" arrivalSpeed="11.43" duration="1870.00" routeLength="5425.30" waitingTime="55.00" waitingCount="3" stopTime="1306.00" timeLoss="127.81" rerouteNo="1" devices="vehroute_140 tripinfo_140 emissions_140" vType="vecType" speedFactor="1.11" vaporized="">
        <emissions CO_abs="27431.449828" CO2_abs="1526593.851144" HC_abs="159.692793" PMx_abs="24.980060" NOx_abs="608.397693" fuel_abs="486918.275283" electricity_abs="0"/>
    </tripinfo>
    <tripinfo id="42" depart="18009.00" departLane="31129765_0" departPos="5.10" departSpeed="0.00" departDelay="9.00" arrival="20331.00" arrivalLane="31129765_0" arrivalPos="639.51" arrivalSpeed="24.35" duration="2322.00" routeLength="7763.38" waitingTime="247.00" waitingCount="12" stopTime="1498.00" timeLoss="355.48" rerouteNo="1" devices="vehroute_42 tripinfo_42 emissions_42" vType="vecType" speedFactor="1.09" vaporized="">
        <emissions CO_abs="72167.401780" CO2_abs="2737380.685688" HC_abs="392.762975" PMx_abs="55.148364" NOx_abs="1128.813038" fuel_abs="873112.559801" electricity_abs="0"/>
    </tripinfo>
    <tripinfo id="53" depart="18060.00" departLane="-27029200#2_0" departPos="5.10" departSpeed="0.00" departDelay="0.00" arrival="20370.00" arrivalLane="-27029200#2_0" arrivalPos="66.62" arrivalSpeed="11.21" duration="2310.00" routeLength="6523.13" waitingTime="270.00" waitingCount="11" stopTime="1436.00" timeLoss="391.49" rerouteNo="1" devices="vehroute_53 tripinfo_53 emissions_53" vType="vecType" speedFactor="1.10" vaporized="">
        <emissions CO_abs="72425.660682" CO2_abs="2507752.847596" HC_abs="387.313494" PMx_abs="47.868317" NOx_abs="1038.139117" fuel_abs="799876.067048" electricity_abs="0"/>
    </tripinfo>
    <tripinfo id="119" depart="18240.00" departLane="8916767#0_0" departPos="5.10" departSpeed="0.00" departDelay="0.00" arrival="20445.00" arrivalLane="8916767#0_0" arrivalPos="129.66" arrivalSpeed="10.85" duration="2205.00" routeLength="5013.92" waitingTime="223.00" waitingCount="10" stopTime="1457.00" timeLoss="328.72" rerouteNo="1" devices="vehroute_119 tripinfo_119 emissions_119" vType="vecType" speedFactor="1.07" vaporized="">
        <emissions CO_abs="58077.207722" CO2_abs="1935162.569755" HC_abs="308.918406" PMx_abs="35.683807" NOx_abs="801.384973" fuel_abs="617244.209684" electricity_abs="0"/>
    </tripinfo>
    <tripinfo id="134" depart="18360.00" departLane="8916767#0_0" departPos="5.10" departSpeed="0.00" departDelay="0.00" arrival="20518.00" arrivalLane="8916767#0_0" arrivalPos="129.66" arrivalSpeed="12.54" duration="2158.00" routeLength="6996.47" waitingTime="280.00" waitingCount="15" stopTime="1224.00" timeLoss="422.22" rerouteNo="2" devices="vehroute_134 tripinfo_134 emissions_134" vType="vecType" speedFactor="1.23" vaporized="">
        <emissions CO_abs="75063.562940" CO2_abs="2730843.589666" HC_abs="403.468687" PMx_abs="51.182535" NOx_abs="1130.231959" fuel_abs="871031.390353" electricity_abs="0"/>
    </tripinfo>
    <tripinfo id="184" depart="18600.00" departLane="224384035#0_0" departPos="5.10" departSpeed="0.00" departDelay="0.00" arrival="20592.00" arrivalLane="224384035#0_0" arrivalPos="123.84" arrivalSpeed="10.19" duration="1992.00" routeLength="5718.91" waitingTime="223.00" waitingCount="9" stopTime="1156.00" timeLoss="313.97" rerouteNo="2" devices="vehroute_184 tripinfo_184 emissions_184" vType="vecType" speedFactor="0.97" vaporized="">
        <emissions CO_abs="59723.692335" CO2_abs="2045820.729788" HC_abs="318.928622" PMx_abs="36.070182" NOx_abs="838.009800" fuel_abs="652540.686549" electricity_abs="0"/>
    </tripinfo>
    <tripinfo id="37" depart="18003.00" departLane="27398045#1_0" departPos="5.10" departSpeed="0.00" departDelay="3.00" arrival="20619.00" arrivalLane="27398045#1_0" arrivalPos="122.17" arrivalSpeed="11.95" duration="2616.00" routeLength="6763.75" waitingTime="332.00" waitingCount="15" stopTime="1629.00" timeLoss="477.23" rerouteNo="1" devices="vehroute_37 tripinfo_37 emissions_37" vType="vecType" speedFactor="1.18" vaporized="">
        <emissions CO_abs="83253.558079" CO2_abs="2759657.407009" HC_abs="441.536594" PMx_abs="52.488083" NOx_abs="1148.928338" fuel_abs="880225.667096" electricity_abs="0"/>
    </tripinfo>
    <tripinfo id="133" depart="18360.00" departLane="-27167281#1_0" departPos="5.10" departSpeed="0.00" departDelay="0.00" arrival="20770.00" arrivalLane="-27167281#1_0" arrivalPos="192.19" arrivalSpeed="11.43" duration="2410.00" routeLength="12787.03" waitingTime="192.00" waitingCount="8" stopTime="1433.00" timeLoss="295.40" rerouteNo="1" devices="vehroute_133 tripinfo_133 emissions_133" vType="vecType" speedFactor="1.04" vaporized="">
        <emissions CO_abs="75721.671657" CO2_abs="3562757.308809" HC_abs="429.887880" PMx_abs="71.369031" NOx_abs="1409.459759" fuel_abs="1136367.231360" electricity_abs="0"/>
    </tripinfo>
    <tripinfo id="31" depart="18006.00" departLane="123867455_0" departPos="5.10" departSpeed="0.00" departDelay="6.00" arrival="20774.00" arrivalLane="123867455_0" arrivalPos="904.85" arrivalSpeed="33.37" duration="2768.00" routeLength="7632.90" waitingTime="146.00" waitingCount="9" stopTime="2051.00" timeLoss="253.07" rerouteNo="1" devices="vehroute_31 tripinfo_31 emissions_31" vType="vecType" speedFactor="1.15" vaporized="">
        <emissions CO_abs="53468.995991" CO2_abs="2411887.856182" HC_abs="299.407165" PMx_abs="46.363941" NOx_abs="975.548010" fuel_abs="769289.998854" electricity_abs="0"/>
    </tripinfo>
    <tripinfo id="57" depart="18060.00" departLane="111089307#0_0" departPos="5.10" departSpeed="0.00" departDelay="0.00" arrival="20843.00" arrivalLane="111089307#0_0" arrivalPos="135.96" arrivalSpeed="12.58" duration="2783.00" routeLength="7182.83" waitingTime="459.00" waitingCount="16" stopTime="1630.00" timeLoss="590.26" rerouteNo="2" devices="vehroute_57 tripinfo_57 emissions_57" vType="vecType" speedFactor="1.14" vaporized="">
        <emissions CO_abs="102092.150420" CO2_abs="3019860.003012" HC_abs="533.932969" PMx_abs="58.360601" NOx_abs="1263.944550" fuel_abs="963226.409050" electricity_abs="0"/>
    </tripinfo>
    <tripinfo id="43" depart="18012.00" departLane="123867455_0" departPos="5.10" departSpeed="0.00" departDelay="12.00" arrival="20846.00" arrivalLane="123867455_0" arrivalPos="904.85" arrivalSpeed="29.69" duration="2834.00" routeLength="8280.56" waitingTime="232.00" waitingCount="12" stopTime="1894.00" timeLoss="367.15" rerouteNo="2" devices="vehroute_43 tripinfo_43 emissions_43" vType="vecType" speedFactor="1.04" vaporized="">
        <emissions CO_abs="73665.718487" CO2_abs="2881354.139643" HC_abs="402.869072" PMx_abs="55.280694" NOx_abs="1180.769569" fuel_abs="919035.168969" electricity_abs="0"/>
    </tripinfo>
    <tripinfo id="109" depart="18180.00" departLane="191296172#0_0" departPos="5.10" departSpeed="0.00" departDelay="0.00" arrival="20960.00" arrivalLane="191296172#0_1" arrivalPos="157.44" arrivalSpeed="10.69" duration="2780.00" routeLength="6631.46" waitingTime="249.00" waitingCount="13" stopTime="1843.00" timeLoss="376.34" rerouteNo="1" devices="vehroute_109 tripinfo_109 emissions_109" vType="vecType" speedFactor="0.96" vaporized="">
        <emissions CO_abs="71364.582185" CO2_abs="2452952.754970" HC_abs="381.392370" PMx_abs="45.072307" NOx_abs="1009.902759" fuel_abs="782398.787033" electricity_abs="0"/>
    </tripinfo>
    <tripinfo id="174" depart="18552.00" departLane="90077241_0" departPos="5.10" departSpeed="0.00" departDelay="12.00" arrival="21001.00" arrivalLane="90077241_1" arrivalPos="3225.35" arrivalSpeed="28.50" duration="2449.00" routeLength="13531.94" waitingTime="177.00" waitingCount="7" stopTime="1483.00" timeLoss="275.60" rerouteNo="2" devices="vehroute_174 tripinfo_174 emissions_174" vType="vecType" speedFactor="1.00" vaporized="">
        <emissions CO_abs="77021.730221" CO2_abs="3577740.118620" HC_abs="437.219130" PMx_abs="73.509996" NOx_abs="1399.936065" fuel_abs="1141146.845167" electricity_abs="0"/>
    </tripinfo>
    <tripinfo id="94" depart="18120.00" departLane="254758124#0_0" departPos="5.10" departSpeed="0.00" departDelay="0.00" arrival="21027.00" arrivalLane="254758124#0_1" arrivalPos="106.41" arrivalSpeed="12.10" duration="2907.00" routeLength="12338.45" waitingTime="495.00" waitingCount="17" stopTime="1627.00" timeLoss="637.07" rerouteNo="2" devices="vehroute_94 tripinfo_94 emissions_94" vType="vecType" speedFactor="1.09" vaporized="">
        <emissions CO_abs="133723.294393" CO2_abs="4445225.552380" HC_abs="715.616154" PMx_abs="95.956778" NOx_abs="1831.319658" fuel_abs="1417852.021509" electricity_abs="0"/>
    </tripinfo>
    <tripinfo id="188" depart="18660.00" departLane="111089307#0_0" departPos="5.10" departSpeed="0.00" departDelay="0.00" arrival="21063.00" arrivalLane="111089307#0_0" arrivalPos="135.96" arrivalSpeed="10.37" duration="2403.00" routeLength="4145.38" waitingTime="84.00" waitingCount="3" stopTime="1897.00" timeLoss="133.13" rerouteNo="1" devices="vehroute_188 tripinfo_188 emissions_188" vType="vecType" speedFactor="1.00" vaporized="">
        <emissions CO_abs="27286.656377" CO2_abs="1188251.562533" HC_abs="151.437717" PMx_abs="18.666300" NOx_abs="470.435489" fuel_abs="379006.086390" electricity_abs="0"/>
    </tripinfo>
    <tripinfo id="232" depart="19140.00" departLane="111089307#0_0" departPos="5.10" departSpeed="0.00" departDelay="0.00" arrival="21225.00" arrivalLane="111089307#0_0" arrivalPos="135.96" arrivalSpeed="11.66" duration="2085.00" routeLength="6280.71" waitingTime="162.00" waitingCount="7" stopTime="1381.00" timeLoss="245.75" rerouteNo="2" devices="vehroute_232 tripinfo_232 emissions_232" vType="vecType" speedFactor="1.11" vaporized="">
        <emissions CO_abs="48536.163381" CO2_abs="2030952.052565" HC_abs="267.914589" PMx_abs="37.067317" NOx_abs="826.558536" fuel_abs="647790.856912" electricity_abs="0"/>
    </tripinfo>
    <tripinfo id="29" depart="18000.00" departLane="-35977367#2_0" departPos="5.10" departSpeed="0.00" departDelay="0.00" arrival="21235.00" arrivalLane="-35977367#2_0" arrivalPos="431.73" arrivalSpeed="9.36" duration="3235.00" routeLength="6070.29" waitingTime="210.00" waitingCount="8" stopTime="2348.00" timeLoss="303.44" rerouteNo="2" devices="vehroute_29 tripinfo_29 emissions_29" vType="vecType" speedFactor="0.93" vaporized="">
        <emissions CO_abs="60132.906760" CO2_abs="2123155.010723" HC_abs="322.619497" PMx_abs="36.395478" NOx_abs="865.037513" fuel_abs="677207.314620" electricity_abs="0"/>
    </tripinfo>
    <tripinfo id="205" depart="18960.00" departLane="-24310636#2_0" departPos="5.10" departSpeed="0.00" departDelay="0.00" arrival="21239.00" arrivalLane="-24310636#2_1" arrivalPos="108.36" arrivalSpeed="11.72" duration="2279.00" routeLength="5381.13" waitingTime="118.00" waitingCount="5" stopTime="1714.00" timeLoss="189.55" rerouteNo="1" devices="vehroute_205 tripinfo_205 emissions_205" vType="vecType" speedFactor="1.13" vaporized="">
        <emissions CO_abs="39228.898928" CO2_abs="1744102.181208" HC_abs="218.533908" PMx_abs="31.929304" NOx_abs="706.039015" fuel_abs="556296.013243" electricity_abs="0"/>
    </tripinfo>
    <tripinfo id="288" depart="19623.00" departLane="90077241_0" departPos="5.10" departSpeed="0.00" departDelay="3.00" arrival="21253.00" arrivalLane="90077241_1" arrivalPos="3225.35" arrivalSpeed="38.24" duration="1630.00" routeLength="11600.11" waitingTime="176.00" waitingCount="5" stopTime="1049.00" timeLoss="231.63" rerouteNo="1" devices="vehroute_288 tripinfo_288 emissions_288" vType="vecType" speedFactor="1.32" vaporized="">
        <emissions CO_abs="99842.511207" CO2_abs="3680098.948662" HC_abs="548.472921" PMx_abs="94.580337" NOx_abs="1475.430850" fuel_abs="1173793.398376" electricity_abs="0"/>
    </tripinfo>
    <tripinfo id="284" depart="19560.00" departLane="31129765_0" departPos="5.10" departSpeed="0.00" departDelay="0.00" arrival="21264.00" arrivalLane="31129765_0" arrivalPos="639.51" arrivalSpeed="22.43" duration="1704.00" routeLength="6946.37" waitingTime="172.00" waitingCount="7" stopTime="1026.00" timeLoss="261.66" rerouteNo="1" devices="vehroute_284 tripinfo_284 emissions_284" vType="vecType" speedFactor="1.05" vaporized="">
        <emissions CO_abs="56508.108158" CO2_abs="2285029.767241" HC_abs="311.074693" PMx_abs="45.683461" NOx_abs="934.949956" fuel_abs="728829.479962" electricity_abs="0"/>
    </tripinfo>
    <tripinfo id="159" depart="18540.00" departLane="28805009#5_0" departPos="5.10" departSpeed="0.00" departDelay="0.00" arrival="21356.00" arrivalLane="28805009#5_0" arrivalPos="49.78" arrivalSpeed="9.81" duration="2816.00" routeLength="3704.12" waitingTime="103.00" waitingCount="5" stopTime="2294.00" timeLoss="164.39" rerouteNo="1" devices="vehroute_159 tripinfo_159 emissions_159" vType="vecType" speedFactor="0.93" vaporized="">
        <emissions CO_abs="33145.849650" CO2_abs="1234856.048204" HC_abs="179.328854" PMx_abs="20.974812" NOx_abs="502.343813" fuel_abs="393872.070188" electricity_abs="0"/>
    </tripinfo>
    <tripinfo id="228" depart="19080.00" departLane="144489137#3_0" departPos="5.10" departSpeed="0.00" departDelay="0.00" arrival="21391.00" arrivalLane="144489137#3_1" arrivalPos="146.43" arrivalSpeed="10.29" duration="2311.00" routeLength="2958.96" waitingTime="186.00" waitingCount="6" stopTime="1806.00" timeLoss="241.87" rerouteNo="2" devices="vehroute_228 tripinfo_228 emissions_228" vType="vecType" speedFactor="1.00" vaporized="">
        <emissions CO_abs="43971.458042" CO2_abs="1299471.112960" HC_abs="230.273431" PMx_abs="24.760422" NOx_abs="544.437392" fuel_abs="414484.652586" electricity_abs="0"/>
    </tripinfo>
    <tripinfo id="210" depart="18960.00" departLane="-160313263#1_0" departPos="5.10" departSpeed="0.00" departDelay="0.00" arrival="21427.00" arrivalLane="-160313263#1_0" arrivalPos="124.42" arrivalSpeed="9.50" duration="2467.00" routeLength="5241.74" waitingTime="304.00" waitingCount="12" stopTime="1574.00" timeLoss="392.00" rerouteNo="2" devices="vehroute_210 tripinfo_210 emissions_210" vType="vecType" speedFactor="0.94" vaporized="">
        <emissions CO_abs="71997.451595" CO2_abs="2094914.664812" HC_abs="376.083859" PMx_abs="38.334152" NOx_abs="868.775552" fuel_abs="668205.018121" electricity_abs="0"/>
    </tripinfo>
    <tripinfo id="158" depart="18483.00" departLane="31129765_0" departPos="5.10" departSpeed="0.00" departDelay="3.00" arrival="21528.00" arrivalLane="31129765_0" arrivalPos="639.51" arrivalSpeed="19.00" duration="3045.00" routeLength="9813.28" waitingTime="407.00" waitingCount="15" stopTime="1735.00" timeLoss="540.23" rerouteNo="1" devices="vehroute_158 tripinfo_158 emissions_158" vType="vecType" speedFactor="0.90" vaporized="">
        <emissions CO_abs="105254.117672" CO2_abs="3510781.589858" HC_abs="559.724617" PMx_abs="65.823803" NOx_abs="1438.381224" fuel_abs="1119807.499419" electricity_abs="0"/>
    </tripinfo>
    <tripinfo id="197" depart="18720.00" departLane="224384035#0_0" departPos="5.10" departSpeed="0.00" departDelay="0.00" arrival="21528.00" arrivalLane="224384035#0_0" arrivalPos="123.84" arrivalSpeed="10.14" duration="2808.00" routeLength="6380.04" waitingTime="252.00" waitingCount="10" stopTime="1884.00" timeLoss="354.32" rerouteNo="1" devices="vehroute_197 tripinfo_197 emissions_197" vType="vecType" speedFactor="0.99" vaporized="">
        <emissions CO_abs="66365.914819" CO2_abs="2253199.961735" HC_abs="354.171070" PMx_abs="40.239482" NOx_abs="925.625473" fuel_abs="718686.828786" electricity_abs="0"/>
    </tripinfo>
    <tripinfo id="107" depart="18180.00" departLane="-206662304#13_0" departPos="5.10" departSpeed="0.00" departDelay="0.00" arrival="21544.00" arrivalLane="-206662304#13_0" arrivalPos="290.52" arrivalSpeed="10.41" duration="3364.00" routeLength="14526.52" waitingTime="369.00" waitingCount="14" stopTime="1965.00" timeLoss="506.23" rerouteNo="1" devices="vehroute_107 tripinfo_107 emissions_107" vType="vecType" speedFactor="1.03" vaporized="">
        <emissions CO_abs="110736.315966" CO2_abs="4371273.689686" HC_abs="607.952829" PMx_abs="85.603640" NOx_abs="1748.539472" fuel_abs="1394260.710235" electricity_abs="0"/>
    </tripinfo>
    <tripinfo id="162" depart="18543.00" departLane="90077241_0" departPos="5.10" departSpeed="0.00" departDelay="3.00" arrival="21544.00" arrivalLane="90077241_0" arrivalPos="3225.35" arrivalSpeed="28.06" duration="3001.00" routeLength="11625.26" waitingTime="66.00" waitingCount="2" stopTime="2425.00" timeLoss="114.77" rerouteNo="1" devices="vehroute_162 tripinfo_162 emissions_162" vType="vecType" speedFactor="1.00" vaporized="">
        <emissions CO_abs="46676.214648" CO2_abs="2770030.115852" HC_abs="280.167334" PMx_abs="58.602613" NOx_abs="1064.083591" fuel_abs="883513.821126" electricity_abs="0"/>
    </tripinfo>
    <tripinfo id="252" depart="19440.00" departLane="-27029204_0" departPos="5.10" departSpeed="0.00" departDelay="0.00" arrival="21604.00" arrivalLane="-27029204_0" arrivalPos="195.60" arrivalSpeed="12.05" duration="2164.00" routeLength="7068.57" waitingTime="319.00" waitingCount="14" stopTime="1232.00" timeLoss="445.84" rerouteNo="2" devices="vehroute_252 tripinfo_252 emissions_252" vType="vecType" speedFactor="1.19" vaporized="">
        <emissions CO_abs="82348.768561" CO2_abs="2826365.142626" HC_abs="439.753939" PMx_abs="55.377609" NOx_abs="1177.322209" fuel_abs="901499.985761" electricity_abs="0"/>
    </tripinfo>
    <tripinfo id="44" depart="18060.00" departLane="8915254_0" departPos="5.10" departSpeed="0.00" departDelay="0.00" arrival="21622.00" arrivalLane="8915254_0" arrivalPos="317.12" arrivalSpeed="16.89" duration="3562.00" routeLength="7777.74" waitingTime="301.00" waitingCount="12" stopTime="2550.00" timeLoss="426.96" rerouteNo="1" devices="vehroute_44 tripinfo_44 emissions_44" vType="vecType" speedFactor="1.04" vaporized="">
        <emissions CO_abs="80496.157171" CO2_abs="2862006.038738" HC_abs="432.862408" PMx_abs="54.060430" NOx_abs="1179.837643" fuel_abs="912868.518839" electricity_abs="0"/>
    </tripinfo>
    <tripinfo id="98" depart="18180.00" departLane="-254297762#2_0" departPos="5.10" departSpeed="0.00" departDelay="0.00" arrival="21654.00" arrivalLane="-254297762#2_0" arrivalPos="291.17" arrivalSpeed="11.52" duration="3474.00" routeLength="8468.95" waitingTime="532.00" waitingCount="20" stopTime="2107.00" timeLoss="691.61" rerouteNo="2" devices="vehroute_98 tripinfo_98 emissions_98" vType="vecType" speedFactor="1.12" vaporized="">
        <emissions CO_abs="121682.171979" CO2_abs="3653183.851778" HC_abs="637.675315" PMx_abs="70.798835" NOx_abs="1532.141902" fuel_abs="1165232.386237" electricity_abs="0"/>
    </tripinfo>
    <tripinfo id="153" depart="18483.00" departLane="142972028#1_0" departPos="5.10" departSpeed="0.00" departDelay="3.00" arrival="21658.00" arrivalLane="142972028#1_0" arrivalPos="161.20" arrivalSpeed="9.49" duration="3175.00" routeLength="5233.71" waitingTime="277.00" waitingCount="12" stopTime="2298.00" timeLoss="367.41" rerouteNo="1" devices="vehroute_153 tripinfo_153 emissions_153" vType="vecType" speedFactor="0.92" vaporized="">
        <emissions CO_abs="68598.054013" CO2_abs="2047168.927854" HC_abs="359.458905" PMx_abs="37.130059" NOx_abs="847.344645" fuel_abs="652974.998433" electricity_abs="0"/>
    </tripinfo>
    <tripinfo id="122" depart="18240.00" departLane="111089307#0_0" departPos="5.10" departSpeed="0.00" departDelay="0.00" arrival="21659.00" arrivalLane="111089307#0_0" arrivalPos="135.96" arrivalSpeed="10.53" duration="3419.00" routeLength="7104.23" waitingTime="340.00" waitingCount="13" stopTime="2348.00" timeLoss="454.34" rerouteNo="1" devices="vehroute_122 tripinfo_122 emissions_122" vType="vecType" speedFactor="1.03" vaporized="">
        <emissions CO_abs="82103.417119" CO2_abs="2664821.116624" HC_abs="435.178626" PMx_abs="47.348958" NOx_abs="1090.557194" fuel_abs="849981.445974" electricity_abs="0"/>
    </tripinfo>
    <tripinfo id="144" depart="18480.00" departLane="142972028#1_0" departPos="5.10" departSpeed="0.00" departDelay="0.00" arrival="21726.00" arrivalLane="142972028#1_0" arrivalPos="161.20" arrivalSpeed="11.81" duration="3246.00" routeLength="7852.42" waitingTime="275.00" waitingCount="12" stopTime="2256.00" timeLoss="399.34" rerouteNo="1" devices="vehroute_144 tripinfo_144 emissions_144" vType="vecType" speedFactor="1.09" vaporized="">
        <emissions CO_abs="75255.369611" CO2_abs="2776238.002040" HC_abs="406.612305" PMx_abs="51.270752" NOx_abs="1138.472796" fuel_abs="885511.286776" electricity_abs="0"/>
    </tripinfo>
    <tripinfo id="38" depart="18006.00" departLane="142972028#1_0" departPos="5.10" departSpeed="0.00" departDelay="6.00" arrival="21738.00" arrivalLane="142972028#1_1" arrivalPos="161.20" arrivalSpeed="11.90" duration="3732.00" routeLength="7015.31" waitingTime="391.00" waitingCount="11" stopTime="2624.00" timeLoss="508.18" rerouteNo="2" devices="vehroute_38 tripinfo_38 emissions_38" vType="vecType" speedFactor="1.10" vaporized="">
        <emissions CO_abs="90979.310094" CO2_abs="2772948.314912" HC_abs="477.578382" PMx_abs="52.012197" NOx_abs="1150.795454" fuel_abs="884470.534850" electricity_abs="0"/>
    </tripinfo>
    <tripinfo id="208" depart="18960.00" departLane="-144346316#5_0" departPos="5.10" departSpeed="0.00" departDelay="0.00" arrival="21769.00" arrivalLane="-144346316#5_0" arrivalPos="145.14" arrivalSpeed="8.63" duration="2809.00" routeLength="6381.94" waitingTime="480.00" waitingCount="18" stopTime="1546.00" timeLoss="606.07" rerouteNo="2" devices="vehroute_208 tripinfo_208 emissions_208" vType="vecType" speedFactor="0.87" vaporized="">
        <emissions CO_abs="112201.104685" CO2_abs="2990274.923496" HC_abs="579.920878" PMx_abs="57.376243" NOx_abs="1260.373493" fuel_abs="953796.567637" electricity_abs="0"/>
    </tripinfo>
    <tripinfo id="220" depart="19020.00" departLane="-204967525_0" departPos="5.10" departSpeed="0.00" departDelay="0.00" arrival="21806.00" arrivalLane="-204967525_1" arrivalPos="146.26" arrivalSpeed="13.22" duration="2786.00" routeLength="7152.21" waitingTime="377.00" waitingCount="16" stopTime="1705.00" timeLoss="539.85" rerouteNo="1" devices="vehroute_220 tripinfo_220 emissions_220" vType="vecType" speedFactor="1.18" vaporized="">
        <emissions CO_abs="92691.842011" CO2_abs="2952883.457878" HC_abs="489.629957" PMx_abs="57.001680" NOx_abs="1236.736876" fuel_abs="941858.681635" electricity_abs="0"/>
    </tripinfo>
    <tripinfo id="52" depart="18060.00" departLane="30029172#0_0" departPos="5.10" departSpeed="0.00" departDelay="0.00" arrival="21824.00" arrivalLane="30029172#0_0" arrivalPos="147.16" arrivalSpeed="11.19" duration="3764.00" routeLength="8434.59" waitingTime="272.00" waitingCount="9" stopTime="2750.00" timeLoss="378.51" rerouteNo="2" devices="vehroute_52 tripinfo_52 emissions_52" vType="vecType" speedFactor="1.02" vaporized="">
        <emissions CO_abs="74899.913147" CO2_abs="2850124.164781" HC_abs="407.191188" PMx_abs="52.543038" NOx_abs="1161.240487" fuel_abs="909077.251618" electricity_abs="0"/>
    </tripinfo>
    <tripinfo id="50" depart="18060.00" departLane="254396707#6_0" departPos="5.10" departSpeed="0.00" departDelay="0.00" arrival="21873.00" arrivalLane="254396707#6_0" arrivalPos="139.12" arrivalSpeed="9.28" duration="3813.00" routeLength="4531.25" waitingTime="329.00" waitingCount="13" stopTime="2916.00" timeLoss="424.88" rerouteNo="1" devices="vehroute_50 tripinfo_50 emissions_50" vType="vecType" speedFactor="0.85" vaporized="">
        <emissions CO_abs="78938.349808" CO2_abs="2110697.942050" HC_abs="408.091984" PMx_abs="40.033805" NOx_abs="887.124812" fuel_abs="673241.583097" electricity_abs="0"/>
    </tripinfo>
    <tripinfo id="182" depart="18600.00" departLane="8916767#0_0" departPos="5.10" departSpeed="0.00" departDelay="0.00" arrival="21928.00" arrivalLane="8916767#0_0" arrivalPos="129.66" arrivalSpeed="8.93" duration="3328.00" routeLength="7504.42" waitingTime="316.00" waitingCount="14" stopTime="2076.00" timeLoss="445.20" rerouteNo="2" devices="vehroute_182 tripinfo_182 emissions_182" vType="vecType" speedFactor="0.83" vaporized="">
        <emissions CO_abs="90301.399597" CO2_abs="2811478.315012" HC_abs="475.731267" PMx_abs="49.777506" NOx_abs="1160.272224" fuel_abs="896761.407042" electricity_abs="0"/>
    </tripinfo>
    <tripinfo id="266" depart="19500.00" departLane="224384035#0_0" departPos="5.10" departSpeed="0.00" departDelay="0.00" arrival="21938.00" arrivalLane="224384035#0_0" arrivalPos="123.84" arrivalSpeed="10.43" duration="2438.00" routeLength="6757.85" waitingTime="374.00" waitingCount="16" stopTime="1347.00" timeLoss="500.82" rerouteNo="1" devices="vehroute_266 tripinfo_266 emissions_266" vType="vecType" speedFactor="1.01" vaporized="">
        <emissions CO_abs="90599.441647" CO2_abs="2781472.395391" HC_abs="476.894952" PMx_abs="51.998856" NOx_abs="1157.752786" fuel_abs="887188.914721" electricity_abs="0"/>
    </tripinfo>
    <tripinfo id="281" depart="19560.00" departLane="-27570802#1_0" departPos="5.10" departSpeed="0.00" departDelay="0.00" arrival="21967.00" arrivalLane="-27570802#1_0" arrivalPos="269.14" arrivalSpeed="10.01" duration="2407.00" routeLength="7847.09" waitingTime="494.00" waitingCount="17" stopTime="1090.00" timeLoss="619.93" rerouteNo="1" devices="vehroute_281 tripinfo_281 emissions_281" vType="vecType" speedFactor="1.01" vaporized="">
        <emissions CO_abs="110110.264092" CO2_abs="3181597.812672" HC_abs="574.806010" PMx_abs="59.113418" NOx_abs="1320.965841" fuel_abs="1014819.042253" electricity_abs="0"/>
    </tripinfo>
    <tripinfo id="13" depart="18003.00" departLane="90077241_0" departPos="5.10" departSpeed="0.00" departDelay="3.00" arrival="21988.00" arrivalLane="90077241_1" arrivalPos="3225.35" arrivalSpeed="32.03" duration="3985.00" routeLength="12752.38" waitingTime="218.00" waitingCount="7" stopTime="3166.00" timeLoss="299.24" rerouteNo="1" devices="vehroute_13 tripinfo_13 emissions_13" vType="vecType" speedFactor="1.12" vaporized="">
        <emissions CO_abs="89542.078310" CO2_abs="3725297.555474" HC_abs="499.389148" PMx_abs="84.021932" NOx_abs="1485.975817" fuel_abs="1188210.491013" electricity_abs="0"/>
    </tripinfo>
    <tripinfo id="181" depart="18600.00" departLane="111089307#0_0" departPos="5.10" departSpeed="0.00" departDelay="0.00" arrival="22015.00" arrivalLane="111089307#0_0" arrivalPos="135.96" arrivalSpeed="11.08" duration="3415.00" routeLength="7182.83" waitingTime="361.00" waitingCount="13" stopTime="2358.00" timeLoss="473.22" rerouteNo="1" devices="vehroute_181 tripinfo_181 emissions_181" vType="vecType" speedFactor="1.10" vaporized="">