<?xml version="1.0" encoding="UTF-8"?>

<!-- generated on 2023-01-10 07:32:00 by Eclipse SUMO sumo Version 1.14.1
<configuration xmlns:xsi="http://www.w3.org/2001/XMLSchema-instance" xsi:noNamespaceSchemaLocation="http://sumo.dlr.de/xsd/sumoConfiguration.xsd">

    <input>
        <net-file value="./strategia3_config/../san_francisco.net.xml"/>
        <route-files value="./strategia3_config/../san_francisco.rou.xml"/>
        <additional-files value="./strategia3_config/../san_francisco.poly.xml,./strategia3_config/../parking_capacity_100%25/off_parking_100%25.add.xml,./strategia3_config/../parking_capacity_100%25/on_parking_100%25.add.xml"/>
    </input>

    <output>
        <emission-output value="./strategia3_config/../output/strategia3/100%25/emissions.xml"/>
        <tripinfo-output value="./strategia3_config/../output/strategia3/100%25/tripinfo.xml"/>
        <vehroute-output value="./strategia3_config/../output/strategia3/100%25/vehroute.xml"/>
        <stop-output value="./strategia3_config/../output/strategia3/100%25/stops.xml"/>
        <collision-output value="./strategia3_config/../output/strategia3/100%25/collision.xml"/>
        <statistic-output value="./strategia3_config/../output/strategia3/100%25/statistic.xml"/>
    </output>

    <time>
        <step-length value="1"/>
    </time>

    <processing>
        <ignore-route-errors value="false"/>
    </processing>

    <report>
        <verbose value="true"/>
        <xml-validation value="never"/>
    </report>

    <traci_server>
        <remote-port value="49872"/>
    </traci_server>

    <gui_only>
        <gui-settings-file value="./strategia3_config/../gui-settings.cfg"/>
        <start value="true"/>
    </gui_only>

</configuration>
-->

<routes xmlns:xsi="http://www.w3.org/2001/XMLSchema-instance" xsi:noNamespaceSchemaLocation="http://sumo.dlr.de/xsd/routes_file.xsd">
    <vehicle id="132" type="vecType" depart="18300.00" arrival="20024.00">
        <routeDistribution>
            <route replacedOnEdge="8922858#0" replacedOnIndex="25" reason="traci:setRoute" replacedAtTime="18663.00" probability="0" edges="142972028#1 89624695#0 89624695#2 89624695#3 27029264#0 27029264#1 27029264#2 27029265#0 25657409#2 25657409#3 25657409#4 25657409#5 25657409#7 25657409#9 25657409#10 25657409#11 25657409#12 25657409#13 25657409#14 25657409#15 25657409#16 25657409#17 25657409#18 25657409#19 255168047#0 8922858#0 8922858#1"/>
            <route replacedOnEdge="-8920242#0" replacedOnIndex="29" reason="traci:changeTarget" replacedAtTime="18682.00" probability="0" edges="142972028#1 89624695#0 89624695#2 89624695#3 27029264#0 27029264#1 27029264#2 27029265#0 25657409#2 25657409#3 25657409#4 25657409#5 25657409#7 25657409#9 25657409#10 25657409#11 25657409#12 25657409#13 25657409#14 25657409#15 25657409#16 25657409#17 25657409#18 25657409#19 255168047#0 8922858#0 8922858#1 -8918381#0 8920242#0 -8920242#0"/>
            <route edges="142972028#1 89624695#0 89624695#2 89624695#3 27029264#0 27029264#1 27029264#2 27029265#0 25657409#2 25657409#3 25657409#4 25657409#5 25657409#7 25657409#9 25657409#10 25657409#11 25657409#12 25657409#13 25657409#14 25657409#15 25657409#16 25657409#17 25657409#18 25657409#19 255168047#0 8922858#0 8922858#1 -8918381#0 8920242#0 -8920242#0 8920242#0 8920242#1 8920242#2 25758528#1 8915151 31129732#1 26779355 8915704#0 8915704#1 254299121#6 256787755#2 256787755#3 256787755#5 91181769#0 88572943#0 88572943#1 26988051 225847519#1 225847519#4 gneE14 142972028#1"/>
        </routeDistribution>
        <stop parkingArea="parkingArea_-8920242#0_0_115" duration="1098.00" parking="1"/>
    </vehicle>

    <vehicle id="5" type="vecType" depart="18000.00" arrival="20103.00">
        <routeDistribution>
            <route replacedOnEdge="283537380#1" replacedOnIndex="25" reason="traci:changeTarget" replacedAtTime="18498.00" probability="0" edges="-23883760 28518571#0 28518571#1 133755923#0 -7373728 7373736#0 -162931811#0 141688972#2 255330036#0 255330036#3 255330036#4 255330036#5 255330036#7 -8919615#1 -8919615#0 8916553#1 -8916551 -88559680#2 -88559661#2 -88559661#0 -225518512#1 225518502#0 225518502#2 225518502#3 283537380#0 283537380#1"/>
            <route edges="-23883760 28518571#0 28518571#1 133755923#0 -7373728 7373736#0 -162931811#0 141688972#2 255330036#0 255330036#3 255330036#4 255330036#5 255330036#7 -8919615#1 -8919615#0 8916553#1 -8916551 -88559680#2 -88559661#2 -88559661#0 -225518512#1 225518502#0 225518502#2 225518502#3 283537380#0 283537380#1 283537380#2 283537552#0 283537552#1 283537644#0 283537644#2 88559702#0 88559702#1 88559702#2 25758528#0 25758528#1 143617584 143617593 254758139#0 254758139#1 162931811#0 -7373736#0 7373728 -133755923#0 -28518571#1 -28518571#0 23883760 -23883760"/>
        </routeDistribution>
        <stop parkingArea="parkingArea_283537380#1_0_469" duration="1121.00" parking="1"/>
    </vehicle>

    <vehicle id="140" type="vecType" depart="18420.00" arrival="20290.00">
        <routeDistribution>
            <route replacedOnEdge="286003244#9" replacedOnIndex="23" reason="traci:changeTarget" replacedAtTime="18685.00" probability="0" edges="-35977367#2 87297164#7 87297164#8 26938417 26938418#0 26938418#1 26938418#2 -24335483#8 -24335483#6 -24335483#5 -27166421#8 -27166421#7 -27166421#6 -27166421#5 27398045#7 8919058 8916882#0 -91181760#0 -100400946 -91181759#5 -28841115#2 -28841115#1 286003244#6 286003244#9"/>
            <route edges="-35977367#2 87297164#7 87297164#8 26938417 26938418#0 26938418#1 26938418#2 -24335483#8 -24335483#6 -24335483#5 -27166421#8 -27166421#7 -27166421#6 -27166421#5 27398045#7 8919058 8916882#0 -91181760#0 -100400946 -91181759#5 -28841115#2 -28841115#1 286003244#6 286003244#9 224316521#0 224316521#1 224316521#3 224316521#4 91182062#0 91182062#1 91182062#2 91182062#3 91185877#0 224384020#6 224384020#8 -24335485#3 24335483#1 24335483#4 -288065247#0 8920093#1 254758127#0 72981813#3 26938338#0 -87297164#7 35977367#2 -35977367#2"/>
        </routeDistribution>
        <stop parkingArea="parkingArea_286003244#9_0_598" duration="1306.00" parking="1"/>
    </vehicle>

    <vehicle id="42" type="vecType" depart="18009.00" arrival="20331.00">
        <routeDistribution>
            <route replacedOnEdge="-99231475" replacedOnIndex="29" reason="traci:changeTarget" replacedAtTime="18461.00" probability="0" edges="31129765 123741465 8915117 27432609 157812260#7 157812260#8 157812260#9 25657409#10 25657409#11 25657409#12 25657409#13 25657409#14 25657409#15 25657409#16 25657409#17 25657409#18 25657409#19 255168047#0 255168047#3 255168046#0 255168046#2 225518502#0 225518502#2 225518502#3 111049100#0 364480069 364480068#0 364480068#1 -225432462#1 -99231475"/>
            <route edges="31129765 123741465 8915117 27432609 157812260#7 157812260#8 157812260#9 25657409#10 25657409#11 25657409#12 25657409#13 25657409#14 25657409#15 25657409#16 25657409#17 25657409#18 25657409#19 255168047#0 255168047#3 255168046#0 255168046#2 225518502#0 225518502#2 225518502#3 111049100#0 364480069 364480068#0 364480068#1 -225432462#1 -99231475 99231475 225432462#0 47172745 91181771#0 91181771#3 91181771#4 91181771#5 91181771#6 283534317#2 283534317#5 283534317#6 283534317#8 8915151 31129732#1 31129732#2 254299122 154966358 gneE27 31129765"/>
        </routeDistribution>
        <stop parkingArea="parkingArea_-99231475_0_428" duration="1498.00" parking="1"/>
    </vehicle>

    <vehicle id="53" type="vecType" depart="18060.00" arrival="20370.00">
        <routeDistribution>
            <route replacedOnEdge="-242896157#0" replacedOnIndex="31" reason="traci:changeTarget" replacedAtTime="18560.00" probability="0" edges="-27029200#2 -27029200#1 27029246 25657409#0 25657409#2 25657409#3 25657409#4 25657409#5 25657409#7 25657409#9 25657409#10 25657409#11 25657409#12 25657409#13 25657409#14 25657409#15 25657409#16 25657409#17 25657409#18 25657409#19 255168047#0 255168047#3 255168046#0 255168046#2 225518502#0 225518502#2 225518502#3 111049100#0 99231460 99231482 27397691 -242896157#0"/>
            <route edges="-27029200#2 -27029200#1 27029246 25657409#0 25657409#2 25657409#3 25657409#4 25657409#5 25657409#7 25657409#9 25657409#10 25657409#11 25657409#12 25657409#13 25657409#14 25657409#15 25657409#16 25657409#17 25657409#18 25657409#19 255168047#0 255168047#3 255168046#0 255168046#2 225518502#0 225518502#2 225518502#3 111049100#0 99231460 99231482 27397691 -242896157#0 -202485361#1 -99231486 364480601#0 283537380#0 283537380#1 283537380#2 283537552#0 283537552#1 283537644#0 283537644#2 88559702#0 88559702#1 88559702#2 25758528#0 25758528#1 8915151 31129732#1 26779355 8915704#0 8915704#1 254299121#6 254299121#8 254299121#9 25758513 27029200#0 27029200#2 -27029200#2"/>
        </routeDistribution>
        <stop parkingArea="parkingArea_-242896157#0_0_442" duration="1436.00" parking="1"/>
    </vehicle>

    <vehicle id="119" type="vecType" depart="18240.00" arrival="20445.00">
        <routeDistribution>
            <route replacedOnEdge="-254466686#4" replacedOnIndex="31" reason="traci:changeTarget" replacedAtTime="18566.00" probability="0" edges="8916767#0 8916767#1 146155388 -254758127#15 -48211062#11 -48211062#10 -48211062#9 -30029708#2 -30029708#1 -30029708#0 30030100#0 30030100#2 148846995 148846996#0 148846996#1 148846996#2 -48211487#2 -48211487#1 -48211487#0 48211960 87376672#0 87376672#1 -91185877#1 -91185877#0 -254971056#1 -8922640#1 27054205#0 27054205#1 27054209#0 -254756526#1 -254396719#1 -254466686#4"/>
            <route edges="8916767#0 8916767#1 146155388 -254758127#15 -48211062#11 -48211062#10 -48211062#9 -30029708#2 -30029708#1 -30029708#0 30030100#0 30030100#2 148846995 148846996#0 148846996#1 148846996#2 -48211487#2 -48211487#1 -48211487#0 48211960 87376672#0 87376672#1 -91185877#1 -91185877#0 -254971056#1 -8922640#1 27054205#0 27054205#1 27054209#0 -254756526#1 -254396719#1 -254466686#4 254466686#4 254396719#0 254756526#0 254971069#0 27054195#0 8922640#0 254971056#0 91185877#0 91185877#1 30030101#0 30030101#1 87376669 48211487#0 48211487#1 48211487#2 48211828 254756518 148874363#0 148874364#0 148874364#1 148874364#3 30029708#0 30029708#1 30029708#2 48211062#9 48211062#10 48211062#11 254758127#15 -146155388 -8916767#1 -8916767#0 8916767#0"/>
        </routeDistribution>
        <stop parkingArea="parkingArea_-254466686#4_0_360" duration="1457.00" parking="1"/>
    </vehicle>

    <vehicle id="134" type="vecType" depart="18360.00" arrival="20518.00">
        <routeDistribution>
            <route replacedOnEdge="8916922#1" replacedOnIndex="43" reason="traci:setRoute" replacedAtTime="18704.00" probability="0" edges="8916767#0 8916767#1 146155388 -254758127#15 -48211062#11 -48211062#10 -48211062#9 -30029708#2 -30029708#1 -30029708#0 30030100#0 30030100#2 148846995 148846996#0 148846996#1 148846996#2 -48211487#2 -48211487#1 -48211487#0 48211960 87376672#0 87376672#1 -91185877#1 -91185877#0 -254971056#1 8919205#17 8919205#18 8919205#21 8919205#24 47108420#0 47108420#3 47108420#4 28843496 30758839#0 30758839#1 8922560#0 8922560#1 8922560#3 8922560#4 283512618#0 283512618#3 283512618#5 88463827#0 8916922#1 -8916922#2"/>
            <route replacedOnEdge="8916922#3" replacedOnIndex="46" reason="traci:changeTarget" replacedAtTime="18739.00" probability="0" edges="8916767#0 8916767#1 146155388 -254758127#15 -48211062#11 -48211062#10 -48211062#9 -30029708#2 -30029708#1 -30029708#0 30030100#0 30030100#2 148846995 148846996#0 148846996#1 148846996#2 -48211487#2 -48211487#1 -48211487#0 48211960 87376672#0 87376672#1 -91185877#1 -91185877#0 -254971056#1 8919205#17 8919205#18 8919205#21 8919205#24 47108420#0 47108420#3 47108420#4 28843496 30758839#0 30758839#1 8922560#0 8922560#1 8922560#3 8922560#4 283512618#0 283512618#3 283512618#5 88463827#0 8916922#1 -8916922#2 8916922#1 8916922#3 -8916922#4"/>
            <route edges="8916767#0 8916767#1 146155388 -254758127#15 -48211062#11 -48211062#10 -48211062#9 -30029708#2 -30029708#1 -30029708#0 30030100#0 30030100#2 148846995 148846996#0 148846996#1 148846996#2 -48211487#2 -48211487#1 -48211487#0 48211960 87376672#0 87376672#1 -91185877#1 -91185877#0 -254971056#1 8919205#17 8919205#18 8919205#21 8919205#24 47108420#0 47108420#3 47108420#4 28843496 30758839#0 30758839#1 8922560#0 8922560#1 8922560#3 8922560#4 283512618#0 283512618#3 283512618#5 88463827#0 8916922#1 -8916922#2 8916922#1 8916922#3 254971064#0 99231463#0 224373751 28319343#0 8916375#0 8916375#1 254466686#0 254466686#1 254466686#2 254466686#3 254466686#4 254396719#0 254756526#0 254971069#0 27054195#0 8922640#0 254971056#0 91185877#0 91185877#1 30030101#0 30030101#1 87376669 48211487#0 48211487#1 48211487#2 48211828 254756518 148874363#0 148874364#0 148874364#1 148874364#3 30029708#0 30029708#1 30029708#2 48211062#9 48211062#10 48211062#11 254758127#15 -146155388 -8916767#1 -8916767#0 8916767#0"/>
        </routeDistribution>
        <stop parkingArea="parkingArea_8916922#3_0_423" duration="1224.00" parking="1"/>
    </vehicle>

    <vehicle id="184" type="vecType" depart="18600.00" arrival="20592.00">
        <routeDistribution>
            <route replacedOnEdge="287958607#4" replacedOnIndex="18" reason="traci:setRoute" replacedAtTime="18922.00" probability="0" edges="224384035#0 224384035#1 30029560#0 -25372932#4 27398045#5 27398045#6 27398045#7 8919058 8916882#0 -91181760#0 -100400946 -91181759#5 -28841115#2 -28841115#1 286003244#6 286003244#9 224316514#0 287958607#3 287958607#4 133733590#0"/>
            <route replacedOnEdge="-224384018" replacedOnIndex="21" reason="traci:changeTarget" replacedAtTime="19008.00" probability="0" edges="224384035#0 224384035#1 30029560#0 -25372932#4 27398045#5 27398045#6 27398045#7 8919058 8916882#0 -91181760#0 -100400946 -91181759#5 -28841115#2 -28841115#1 286003244#6 286003244#9 224316514#0 287958607#3 287958607#4 133733590#0 -224384019#1 -224384018"/>
            <route edges="224384035#0 224384035#1 30029560#0 -25372932#4 27398045#5 27398045#6 27398045#7 8919058 8916882#0 -91181760#0 -100400946 -91181759#5 -28841115#2 -28841115#1 286003244#6 286003244#9 224316514#0 287958607#3 287958607#4 133733590#0 -224384019#1 -224384018 -225719777#1 225719777#0 133755922 133733593#0 133733593#1 254297764#0 28841120#0 gneE25 28841115#0 28841115#2 91181759#2 100400946 91181760#0 91181760#1 27166421#1 254756525#19 254756525#20 254756525#23 -254758121#2 -254758121#0 -26938418#4 30035682#0 30035682#1 gneE7 224384035#0"/>
        </routeDistribution>
        <stop parkingArea="parkingArea_-224384018_0_73" duration="1156.00" parking="1"/>
    </vehicle>

    <vehicle id="37" type="vecType" depart="18003.00" arrival="20619.00">
        <routeDistribution>
            <route replacedOnEdge="-225518512#1" replacedOnIndex="25" reason="traci:changeTarget" replacedAtTime="18504.00" probability="0" edges="27398045#1 27398045#2 27398045#3 27398045#4 27398045#5 27398045#6 27398045#7 8919058 8916882#0 -91181760#0 -100400946 -91181759#5 -28841115#2 -28841115#1 286003244#6 286003244#9 224316514#0 287958607#3 287958607#4 133733590#0 -224384019#1 88597577#0 88559691#0 88559691#4 225518512#0 -225518512#1"/>
            <route edges="27398045#1 27398045#2 27398045#3 27398045#4 27398045#5 27398045#6 27398045#7 8919058 8916882#0 -91181760#0 -100400946 -91181759#5 -28841115#2 -28841115#1 286003244#6 286003244#9 224316514#0 287958607#3 287958607#4 133733590#0 -224384019#1 88597577#0 88559691#0 88559691#4 225518512#0 -225518512#1 -88559691#6 -88559691#3 88559669 88572965#0 88572965#1 111552058#0 88597544#0 144489134#2 184956229#0 111586254#0 28841120#0 gneE25 28841115#0 28841115#2 91181759#2 100400946 91181760#0 91181760#1 27166421#1 254756525#19 254756525#20 254756525#23 254756525#25 254756525#26 gneE8 27398045#1"/>
        </routeDistribution>
        <stop parkingArea="parkingArea_-225518512#1_0_517" duration="1629.00" parking="1"/>
    </vehicle>

    <vehicle id="133" type="vecType" depart="18360.00" arrival="20770.00">
        <routeDistribution>
            <route replacedOnEdge="111319423" replacedOnIndex="29" reason="traci:changeTarget" replacedAtTime="18935.00" probability="0" edges="-27167281#1 247966218#0 247966218#3 247966218#4 247966218#5 247966218#6 247966218#7 247966218#8 141688972#0 141688972#1 141688972#2 255330036#0 255330036#3 255330036#4 255330036#5 255330036#7 -8919615#1 -8919615#0 8916553#1 -8916551 -88559680#2 88559650 175354957#0 175354957#1 50690291#1 gneE4 90077241 8921938 110361656 111319423"/>
            <route edges="-27167281#1 247966218#0 247966218#3 247966218#4 247966218#5 247966218#6 247966218#7 247966218#8 141688972#0 141688972#1 141688972#2 255330036#0 255330036#3 255330036#4 255330036#5 255330036#7 -8919615#1 -8919615#0 8916553#1 -8916551 -88559680#2 88559650 175354957#0 175354957#1 50690291#1 gneE4 90077241 8921938 110361656 111319423 27397919 179235241 -364480069 364480601#0 283537380#0 283537380#1 283537380#2 283537552#0 283537552#1 283537644#0 283537644#2 88559702#0 88559702#1 88559702#2 25758528#0 25758528#1 8915151 31129732#1 26779355 27093008#1 111050389#11 247960234#0 247960234#1 27167281#0 -27167281#1"/>
        </routeDistribution>
        <stop parkingArea="parkingArea_111319423_0_83" duration="1433.00" parking="1"/>
    </vehicle>

    <vehicle id="31" type="vecType" depart="18006.00" arrival="20774.00">
        <routeDistribution>
            <route replacedOnEdge="111089307#4" replacedOnIndex="20" reason="traci:changeTarget" replacedAtTime="18485.00" probability="0" edges="123867455 8920391#0 255330048 255351748 -26943653#1 -143617589#6 143617589#3 -143617587 -133755923#1 -133755923#0 157812260#0 -247966218#2 -26943758#1 162931810 256787755#0 254299121#8 254299121#9 25758513 27029200#0 -111089307#4 111089307#4"/>
            <route edges="123867455 8920391#0 255330048 255351748 -26943653#1 -143617589#6 143617589#3 -143617587 -133755923#1 -133755923#0 157812260#0 -247966218#2 -26943758#1 162931810 256787755#0 254299121#8 254299121#9 25758513 27029200#0 -111089307#4 111089307#4 -27029200#1 -25758513 27029265#3 186400366#0 186400366#1 186400366#2 247960234#1 247966218#0 247966218#3 247966218#4 247966218#5 247966218#6 247966218#7 247966218#8 8918874 gneE21 123867455"/>
        </routeDistribution>
        <stop parkingArea="parkingArea_111089307#4_0_960" duration="2051.00" parking="1"/>
    </vehicle>

    <vehicle id="57" type="vecType" depart="18060.00" arrival="20843.00">
        <routeDistribution>
            <route replacedOnEdge="88466052#1" replacedOnIndex="34" reason="traci:setRoute" replacedAtTime="18633.00" probability="0" edges="111089307#0 111089307#1 111089307#2 191296172#1 25657409#0 25657409#2 25657409#3 25657409#4 25657409#5 25657409#7 25657409#9 25657409#10 25657409#11 25657409#12 25657409#13 25657409#14 25657409#15 25657409#16 25657409#17 25657409#18 25657409#19 255168047#0 255168047#3 255168046#0 255168046#2 225518502#0 225518502#2 225518502#3 111049100#0 99231460 99231482 27397691 242896157#1 88463830 88466052#1 8916922#0"/>
            <route replacedOnEdge="8916922#3" replacedOnIndex="37" reason="traci:changeTarget" replacedAtTime="18649.00" probability="0" edges="111089307#0 111089307#1 111089307#2 191296172#1 25657409#0 25657409#2 25657409#3 25657409#4 25657409#5 25657409#7 25657409#9 25657409#10 25657409#11 25657409#12 25657409#13 25657409#14 25657409#15 25657409#16 25657409#17 25657409#18 25657409#19 255168047#0 255168047#3 255168046#0 255168046#2 225518502#0 225518502#2 225518502#3 111049100#0 99231460 99231482 27397691 242896157#1 88463830 88466052#1 8916922#0 8916922#1 8916922#3 -8916922#4"/>
            <route edges="111089307#0 111089307#1 111089307#2 191296172#1 25657409#0 25657409#2 25657409#3 25657409#4 25657409#5 25657409#7 25657409#9 25657409#10 25657409#11 25657409#12 25657409#13 25657409#14 25657409#15 25657409#16 25657409#17 25657409#18 25657409#19 255168047#0 255168047#3 255168046#0 255168046#2 225518502#0 225518502#2 225518502#3 111049100#0 99231460 99231482 27397691 242896157#1 88463830 88466052#1 8916922#0 8916922#1 8916922#3 254971064#0 99231475 225432462#0 47172745 91181771#0 91181771#3 91181771#4 91181771#5 91181771#6 91181771#15 91181771#16 91181771#18 91181771#19 91181771#20 91181771#22 91181771#23 91181771#24 91181771#26 91181768#0 91181768#1 91181768#2 91181768#3 133781720 24310636#0 24310636#1 -111089307#0 111089307#0"/>
        </routeDistribution>
        <stop parkingArea="parkingArea_8916922#3_0_423" duration="1630.00" parking="1"/>
    </vehicle>

    <vehicle id="43" type="vecType" depart="18012.00" arrival="20846.00">
        <routeDistribution>
            <route replacedOnEdge="-26988030#2" replacedOnIndex="32" reason="traci:setRoute" replacedAtTime="18632.00" probability="0" edges="123867455 8920391#0 255330048 255351748 -26943653#1 -143617589#6 143617589#3 -143617587 -162931811#1 -162931811#0 -141688972#1 -141688972#0 -254308553 -254305050#1 -8920435 8920452#1 254305033#2 254305033#3 254305033#4 157812260#8 157812260#9 157812260#10 157812260#11 88572922#0 35973460#1 263855294#0 263855294#3 27167270#0 27167270#1 27167270#2 -26988030#4 -26988030#3 -26988030#2 26988030#2"/>
            <route replacedOnEdge="26988030#3" replacedOnIndex="34" reason="traci:changeTarget" replacedAtTime="18642.00" probability="0" edges="123867455 8920391#0 255330048 255351748 -26943653#1 -143617589#6 143617589#3 -143617587 -162931811#1 -162931811#0 -141688972#1 -141688972#0 -254308553 -254305050#1 -8920435 8920452#1 254305033#2 254305033#3 254305033#4 157812260#8 157812260#9 157812260#10 157812260#11 88572922#0 35973460#1 263855294#0 263855294#3 27167270#0 27167270#1 27167270#2 -26988030#4 -26988030#3 -26988030#2 26988030#2 26988030#3 26988030#4 27167302#0 254759928#0"/>
            <route edges="123867455 8920391#0 255330048 255351748 -26943653#1 -143617589#6 143617589#3 -143617587 -162931811#1 -162931811#0 -141688972#1 -141688972#0 -254308553 -254305050#1 -8920435 8920452#1 254305033#2 254305033#3 254305033#4 157812260#8 157812260#9 157812260#10 157812260#11 88572922#0 35973460#1 263855294#0 263855294#3 27167270#0 27167270#1 27167270#2 -26988030#4 -26988030#3 -26988030#2 26988030#2 26988030#3 26988030#4 -27167270#2 -27167270#1 -27167270#0 -263855294#3 -263855294#0 -35973460#1 -228215681 -225432464 -207761516 111547662#0 88572901#0 264874017#0 264874017#3 264874017#4 264874017#5 254305050#0 254305050#1 254308553 8918874 gneE21 123867455"/>
        </routeDistribution>
        <stop parkingArea="parkingArea_26988030#3_0_1200" duration="1894.00" parking="1"/>
    </vehicle>

    <vehicle id="109" type="vecType" depart="18180.00" arrival="20960.00">
        <routeDistribution>
            <route replacedOnEdge="99231482" replacedOnIndex="28" reason="traci:changeTarget" replacedAtTime="18754.00" probability="0" edges="191296172#0 191296172#1 25657409#0 25657409#2 25657409#3 25657409#4 25657409#5 25657409#7 25657409#9 25657409#10 25657409#11 25657409#12 25657409#13 25657409#14 25657409#15 25657409#16 25657409#17 25657409#18 25657409#19 255168047#0 255168047#3 255168046#0 255168046#2 225518502#0 225518502#2 225518502#3 111049100#0 99231460 99231482"/>
            <route edges="191296172#0 191296172#1 25657409#0 25657409#2 25657409#3 25657409#4 25657409#5 25657409#7 25657409#9 25657409#10 25657409#11 25657409#12 25657409#13 25657409#14 25657409#15 25657409#16 25657409#17 25657409#18 25657409#19 255168047#0 255168047#3 255168046#0 255168046#2 225518502#0 225518502#2 225518502#3 111049100#0 99231460 99231482 -202485361#1 -99231486 364480601#0 283537380#0 283537380#1 283537380#2 283537552#0 283537552#1 283537644#0 283537644#2 88559702#0 88559702#1 88559702#2 25758528#0 25758528#1 8915151 31129732#1 26779355 8915704#0 8915704#1 254299121#6 254299121#8 254299121#9 25758513 27029200#0 -111089307#4 -111089307#3 -191296172#0 191296172#0"/>
        </routeDistribution>
        <stop parkingArea="parkingArea_99231482_0_58" duration="1843.00" parking="1"/>
    </vehicle>

    <vehicle id="174" type="vecType" depart="18552.00" arrival="21001.00">
        <routeDistribution>
            <route replacedOnEdge="27146036#1" replacedOnIndex="21" reason="traci:setRoute" replacedAtTime="18911.00" probability="0" edges="90077241 8921938 110361656 111319423 27397919 179235243#1 364480068#1 364480068#2 -256400251#1 -111560682 224373751 28319343#0 28319343#1 28319343#2 28319343#3 254756521#0 254756521#3 254756521#5 254756521#6 32931798#3 27146036#0 27146036#1 -p3#1"/>
            <route replacedOnEdge="27398048#2" replacedOnIndex="23" reason="traci:changeTarget" replacedAtTime="18978.00" probability="0" edges="90077241 8921938 110361656 111319423 27397919 179235243#1 364480068#1 364480068#2 -256400251#1 -111560682 224373751 28319343#0 28319343#1 28319343#2 28319343#3 254756521#0 254756521#3 254756521#5 254756521#6 32931798#3 27146036#0 27146036#1 -p3#1 27398048#2"/>
            <route edges="90077241 8921938 110361656 111319423 27397919 179235243#1 364480068#1 364480068#2 -256400251#1 -111560682 224373751 28319343#0 28319343#1 28319343#2 28319343#3 254756521#0 254756521#3 254756521#5 254756521#6 32931798#3 27146036#0 27146036#1 -p3#1 27398048#2 254756520#0 254756520#2 254756520#3 254396710#0 254396710#1 88597563#0 256400244#0 225432457 -99231486 364480601#0 283537380#0 283537380#1 283537380#2 8915351 50690291#0 50690291#1 gneE4 90077241"/>
        </routeDistribution>
        <stop parkingArea="parkingArea_27398048#2_0_237" duration="1483.00" parking="1"/>
    </vehicle>

    <vehicle id="94" type="vecType" depart="18120.00" arrival="21027.00">
        <routeDistribution>
            <route replacedOnEdge="50690291#0" replacedOnIndex="19" reason="traci:setRoute" replacedAtTime="18604.00" probability="0" edges="254758124#0 254758124#1 86303763#6 86303763#10 86303763#11 86303763#14 86303763#17 111586257 28841123#0 224316522#0 133733590#0 -224384019#1 88597577#0 88559691#0 88559691#4 225518502#0 329607867 27772070 202317709 50690291#0 50690291#1"/>
            <route replacedOnEdge="-35675861#0" replacedOnIndex="26" reason="traci:changeTarget" replacedAtTime="18858.00" probability="0" edges="254758124#0 254758124#1 86303763#6 86303763#10 86303763#11 86303763#14 86303763#17 111586257 28841123#0 224316522#0 133733590#0 -224384019#1 88597577#0 88559691#0 88559691#4 225518502#0 329607867 27772070 202317709 50690291#0 50690291#1 gneE4 90077241 8921938 120813417 31129372 -35675861#0 -35675862 99231466 -175129396#1 27398032#3"/>
            <route edges="254758124#0 254758124#1 86303763#6 86303763#10 86303763#11 86303763#14 86303763#17 111586257 28841123#0 224316522#0 133733590#0 -224384019#1 88597577#0 88559691#0 88559691#4 225518502#0 329607867 27772070 202317709 50690291#0 50690291#1 gneE4 90077241 8921938 120813417 31129372 -35675861#0 35675861#0 8922307 364480069 364480068#0 364480068#1 364480068#2 88572881#0 88572881#3 88597575#0 88597553#1 88597553#2 254971067#0 254466695#0 254466695#2 254466695#3 329596844#1 329596844#2 100400947#1 100400947#2 100400947#4 27166444 254758124#0"/>
        </routeDistribution>
        <stop parkingArea="parkingArea_-35675861#0_0_462" duration="1627.00" parking="1"/>
    </vehicle>

    <vehicle id="188" type="vecType" depart="18660.00" arrival="21063.00">
        <routeDistribution>
            <route replacedOnEdge="214545530#0" replacedOnIndex="21" reason="traci:changeTarget" replacedAtTime="18919.00" probability="0" edges="111089307#0 111089307#1 111089307#2 191296172#1 25657409#0 25657409#2 25657409#3 25657409#4 25657409#5 25657409#7 25657409#9 25657409#10 25657409#11 25657409#12 25657409#13 25657409#14 25657409#15 25657409#16 25657409#17 25657409#18 -214545530#2 214545530#0"/>
            <route edges="111089307#0 111089307#1 111089307#2 191296172#1 25657409#0 25657409#2 25657409#3 25657409#4 25657409#5 25657409#7 25657409#9 25657409#10 25657409#11 25657409#12 25657409#13 25657409#14 25657409#15 25657409#16 25657409#17 25657409#18 -214545530#2 214545530#0 -214545530#2 91181771#16 91181771#18 91181771#19 91181771#20 91181771#22 91181771#23 91181771#24 91181771#26 91181768#0 91181768#1 91181768#2 91181768#3 133781720 24310636#0 24310636#1 -111089307#0 111089307#0"/>
        </routeDistribution>
        <stop parkingArea="parkingArea_214545530#0_0_694" duration="1897.00" parking="1"/>
    </vehicle>

    <vehicle id="232" type="vecType" depart="19140.00" arrival="21225.00">
        <routeDistribution>
            <route replacedOnEdge="-283537552#1" replacedOnIndex="27" reason="traci:setRoute" replacedAtTime="19528.00" probability="0" edges="111089307#0 111089307#1 111089307#2 191296172#1 25657409#0 25657409#2 25657409#3 25657409#4 25657409#5 25657409#7 25657409#9 25657409#10 25657409#11 25657409#12 25657409#13 25657409#14 25657409#15 25657409#16 25657409#17 25657409#18 25657409#19 255168047#0 255168047#3 255168046#0 255168046#2 225518502#0 329607867 -283537552#1 -283537552#0"/>
            <route replacedOnEdge="283537552#1" replacedOnIndex="30" reason="traci:changeTarget" replacedAtTime="19547.00" probability="0" edges="111089307#0 111089307#1 111089307#2 191296172#1 25657409#0 25657409#2 25657409#3 25657409#4 25657409#5 25657409#7 25657409#9 25657409#10 25657409#11 25657409#12 25657409#13 25657409#14 25657409#15 25657409#16 25657409#17 25657409#18 25657409#19 255168047#0 255168047#3 255168046#0 255168046#2 225518502#0 329607867 -283537552#1 -283537552#0 283537552#0 283537552#1 283537644#0 283537644#2 88559702#0 88559702#1"/>