<?xml version="1.0" encoding="UTF-8"?>

<!-- generated on 2023-01-10 23:39:33 by Eclipse SUMO sumo Version 1.14.1
<configuration xmlns:xsi="http://www.w3.org/2001/XMLSchema-instance" xsi:noNamespaceSchemaLocation="http://sumo.dlr.de/xsd/sumoConfiguration.xsd">

    <input>
        <net-file value="./strategia3_config/../san_francisco.net.xml"/>
        <route-files value="./strategia3_config/../san_francisco.rou.xml"/>
        <additional-files value="./strategia3_config/../san_francisco.poly.xml,./strategia3_config/../parking_capacity_50%25/off_parking_50%25.add.xml,./strategia3_config/../parking_capacity_50%25/on_parking_50%25.add.xml"/>
    </input>

    <output>
        <emission-output value="./strategia3_config/../output/strategia3/50%25/emissions.xml"/>
        <tripinfo-output value="./strategia3_config/../output/strategia3/50%25/tripinfo.xml"/>
        <vehroute-output value="./strategia3_config/../output/strategia3/50%25/vehroute.xml"/>
        <stop-output value="./strategia3_config/../output/strategia3/50%25/stops.xml"/>
        <collision-output value="./strategia3_config/../output/strategia3/50%25/collision.xml"/>
        <statistic-output value="./strategia3_config/../output/strategia3/50%25/statistic.xml"/>
    </output>

    <time>
        <step-length value="1"/>
    </time>

    <processing>
        <ignore-route-errors value="false"/>
    </processing>

    <report>
        <verbose value="true"/>
        <xml-validation value="never"/>
    </report>

    <traci_server>
        <remote-port value="51918"/>
    </traci_server>

    <gui_only>
        <gui-settings-file value="./strategia3_config/../gui-settings.cfg"/>
        <start value="true"/>
    </gui_only>

</configuration>
-->

<tripinfos xmlns:xsi="http://www.w3.org/2001/XMLSchema-instance" xsi:noNamespaceSchemaLocation="http://sumo.dlr.de/xsd/tripinfo_file.xsd">
    <tripinfo id="45" depart="18060.00" departLane="31129765_0" departPos="5.10" departSpeed="0.00" departDelay="0.00" arrival="19651.00" arrivalLane="31129765_0" arrivalPos="639.51" arrivalSpeed="23.47" duration="1591.00" routeLength="4234.28" waitingTime="40.00" waitingCount="1" stopTime="1287.00" timeLoss="80.37" rerouteNo="1" devices="vehroute_45 tripinfo_45 emissions_45" vType="vecType" speedFactor="1.09" vaporized="">
        <emissions CO_abs="22883.126292" CO2_abs="1278155.644632" HC_abs="134.439203" PMx_abs="25.628148" NOx_abs="516.257065" fuel_abs="407673.376063" electricity_abs="0"/>
    </tripinfo>
    <tripinfo id="79" depart="18120.00" departLane="-24310636#2_0" departPos="5.10" departSpeed="0.00" departDelay="0.00" arrival="19962.00" arrivalLane="-24310636#2_1" arrivalPos="108.36" arrivalSpeed="11.26" duration="1842.00" routeLength="6581.41" waitingTime="206.00" waitingCount="8" stopTime="1049.00" timeLoss="302.37" rerouteNo="1" devices="vehroute_79 tripinfo_79 emissions_79" vType="vecType" speedFactor="1.09" vaporized="">
        <emissions CO_abs="58567.063565" CO2_abs="2261213.596492" HC_abs="319.041664" PMx_abs="41.988765" NOx_abs="927.645658" fuel_abs="721236.767590" electricity_abs="0"/>
    </tripinfo>
    <tripinfo id="72" depart="18120.00" departLane="224316521#3_0" departPos="5.10" departSpeed="0.00" departDelay="0.00" arrival="20138.00" arrivalLane="224316521#3_0" arrivalPos="102.03" arrivalSpeed="10.42" duration="2018.00" routeLength="4635.93" waitingTime="334.00" waitingCount="15" stopTime="1139.00" timeLoss="441.14" rerouteNo="1" devices="vehroute_72 tripinfo_72 emissions_72" vType="vecType" speedFactor="0.94" vaporized="">
        <emissions CO_abs="79207.861135" CO2_abs="2177523.589934" HC_abs="411.151618" PMx_abs="42.336009" NOx_abs="920.174888" fuel_abs="694554.262935" electricity_abs="0"/>
    </tripinfo>
    <tripinfo id="35" depart="18000.00" departLane="191296172#0_0" departPos="5.10" departSpeed="0.00" departDelay="0.00" arrival="20205.00" arrivalLane="191296172#0_1" arrivalPos="157.44" arrivalSpeed="10.72" duration="2205.00" routeLength="8733.95" waitingTime="331.00" waitingCount="11" stopTime="1037.00" timeLoss="455.58" rerouteNo="2" devices="vehroute_35 tripinfo_35 emissions_35" vType="vecType" speedFactor="1.02" vaporized="">
        <emissions CO_abs="86765.386788" CO2_abs="3085890.743061" HC_abs="466.356454" PMx_abs="55.816513" NOx_abs="1262.151068" fuel_abs="984281.412681" electricity_abs="0"/>
    </tripinfo>
    <tripinfo id="30" depart="18000.00" departLane="-91181760#0_0" departPos="5.10" departSpeed="0.00" departDelay="0.00" arrival="20279.00" arrivalLane="-91181760#0_0" arrivalPos="79.70" arrivalSpeed="12.04" duration="2279.00" routeLength="3660.42" waitingTime="0.00" waitingCount="0" stopTime="1957.00" timeLoss="44.03" rerouteNo="1" devices="vehroute_30 tripinfo_30 emissions_30" vType="vecType" speedFactor="1.18" vaporized="">
        <emissions CO_abs="11729.089652" CO2_abs="947783.938240" HC_abs="74.512857" PMx_abs="14.795816" NOx_abs="371.382481" fuel_abs="302300.087424" electricity_abs="0"/>
    </tripinfo>
    <tripinfo id="16" depart="18006.00" departLane="90077241_0" departPos="5.10" departSpeed="0.00" departDelay="6.00" arrival="20307.00" arrivalLane="90077241_0" arrivalPos="3225.35" arrivalSpeed="24.77" duration="2301.00" routeLength="11625.26" waitingTime="39.00" waitingCount="1" stopTime="1687.00" timeLoss="89.29" rerouteNo="1" devices="vehroute_16 tripinfo_16 emissions_16" vType="vecType" speedFactor="0.88" vaporized="">
        <emissions CO_abs="34183.789991" CO2_abs="2497862.589328" HC_abs="213.065471" PMx_abs="47.690388" NOx_abs="942.634955" fuel_abs="796703.463692" electricity_abs="0"/>
    </tripinfo>
    <tripinfo id="64" depart="18060.00" departLane="28319343#2_0" departPos="5.10" departSpeed="0.00" departDelay="0.00" arrival="20312.00" arrivalLane="28319343#2_0" arrivalPos="90.58" arrivalSpeed="10.20" duration="2252.00" routeLength="9974.14" waitingTime="217.00" waitingCount="8" stopTime="1438.00" timeLoss="287.43" rerouteNo="2" devices="vehroute_64 tripinfo_64 emissions_64" vType="vecType" speedFactor="0.94" vaporized="">
        <emissions CO_abs="66218.533106" CO2_abs="2777220.590001" HC_abs="366.884658" PMx_abs="55.600344" NOx_abs="1101.295298" fuel_abs="885818.790689" electricity_abs="0"/>
    </tripinfo>
    <tripinfo id="95" depart="18180.00" departLane="123867455_0" departPos="5.10" departSpeed="0.00" departDelay="0.00" arrival="20406.00" arrivalLane="123867455_0" arrivalPos="904.85" arrivalSpeed="30.22" duration="2226.00" routeLength="8308.19" waitingTime="495.00" waitingCount="16" stopTime="1037.00" timeLoss="632.33" rerouteNo="1" devices="vehroute_95 tripinfo_95 emissions_95" vType="vecType" speedFactor="1.06" vaporized="">
        <emissions CO_abs="119349.482114" CO2_abs="3628798.593535" HC_abs="629.241549" PMx_abs="75.016769" NOx_abs="1521.736902" fuel_abs="1157450.562657" electricity_abs="0"/>
    </tripinfo>
    <tripinfo id="40" depart="18000.00" departLane="-206679802#4_0" departPos="5.10" departSpeed="0.00" departDelay="0.00" arrival="20449.00" arrivalLane="-206679802#4_0" arrivalPos="292.11" arrivalSpeed="11.23" duration="2449.00" routeLength="6024.23" waitingTime="248.00" waitingCount="8" stopTime="1579.00" timeLoss="348.20" rerouteNo="2" devices="vehroute_40 tripinfo_40 emissions_40" vType="vecType" speedFactor="1.03" vaporized="">
        <emissions CO_abs="64149.096747" CO2_abs="2226635.643823" HC_abs="343.439850" PMx_abs="39.809461" NOx_abs="913.953492" fuel_abs="710212.918108" electricity_abs="0"/>
    </tripinfo>
    <tripinfo id="108" depart="18180.00" departLane="8916792_0" departPos="5.10" departSpeed="0.00" departDelay="0.00" arrival="20493.00" arrivalLane="8916792_0" arrivalPos="615.11" arrivalSpeed="11.66" duration="2313.00" routeLength="8924.09" waitingTime="521.00" waitingCount="18" stopTime="902.00" timeLoss="661.16" rerouteNo="2" devices="vehroute_108 tripinfo_108 emissions_108" vType="vecType" speedFactor="1.06" vaporized="">
        <emissions CO_abs="117587.612609" CO2_abs="3577295.161480" HC_abs="617.683506" PMx_abs="66.886846" NOx_abs="1484.954167" fuel_abs="1141028.531434" electricity_abs="0"/>
    </tripinfo>
    <tripinfo id="18" depart="18000.00" departLane="8916792_0" departPos="5.10" departSpeed="0.00" departDelay="0.00" arrival="20527.00" arrivalLane="8916792_0" arrivalPos="615.11" arrivalSpeed="10.12" duration="2527.00" routeLength="8427.06" waitingTime="394.00" waitingCount="15" stopTime="1203.00" timeLoss="518.61" rerouteNo="2" devices="vehroute_18 tripinfo_18 emissions_18" vType="vecType" speedFactor="0.94" vaporized="">
        <emissions CO_abs="97192.575434" CO2_abs="3045592.206880" HC_abs="512.488980" PMx_abs="53.372958" NOx_abs="1246.832352" fuel_abs="971436.140064" electricity_abs="0"/>
    </tripinfo>
    <tripinfo id="148" depart="18480.00" departLane="31129765_0" departPos="5.10" departSpeed="0.00" departDelay="0.00" arrival="20542.00" arrivalLane="31129765_0" arrivalPos="639.51" arrivalSpeed="24.48" duration="2062.00" routeLength="6449.60" waitingTime="177.00" waitingCount="6" stopTime="1452.00" timeLoss="252.62" rerouteNo="2" devices="vehroute_148 tripinfo_148 emissions_148" vType="vecType" speedFactor="1.10" vaporized="">
        <emissions CO_abs="54427.126556" CO2_abs="2200661.834053" HC_abs="299.769932" PMx_abs="44.775541" NOx_abs="896.009232" fuel_abs="701919.472257" electricity_abs="0"/>
    </tripinfo>
    <tripinfo id="86" depart="18120.00" departLane="-35977367#2_0" departPos="5.10" departSpeed="0.00" departDelay="0.00" arrival="20596.00" arrivalLane="-35977367#2_0" arrivalPos="431.73" arrivalSpeed="11.05" duration="2476.00" routeLength="5770.12" waitingTime="186.00" waitingCount="6" stopTime="1687.00" timeLoss="273.28" rerouteNo="2" devices="vehroute_86 tripinfo_86 emissions_86" vType="vecType" speedFactor="1.00" vaporized="">
        <emissions CO_abs="53035.492636" CO2_abs="1963037.244603" HC_abs="286.845020" PMx_abs="34.442425" NOx_abs="802.681048" fuel_abs="626133.395781" electricity_abs="0"/>
    </tripinfo>
    <tripinfo id="42" depart="18009.00" departLane="31129765_0" departPos="5.10" departSpeed="0.00" departDelay="9.00" arrival="20600.00" arrivalLane="31129765_0" arrivalPos="639.51" arrivalSpeed="24.15" duration="2591.00" routeLength="7763.38" waitingTime="241.00" waitingCount="10" stopTime="1780.00" timeLoss="342.99" rerouteNo="1" devices="vehroute_42 tripinfo_42 emissions_42" vType="vecType" speedFactor="1.09" vaporized="">
        <emissions CO_abs="70751.946281" CO2_abs="2710302.296637" HC_abs="385.688378" PMx_abs="54.276410" NOx_abs="1113.440099" fuel_abs="864475.757047" electricity_abs="0"/>
    </tripinfo>
    <tripinfo id="128" depart="18300.00" departLane="-133781749_0" departPos="5.10" departSpeed="0.00" departDelay="0.00" arrival="20666.00" arrivalLane="-133781749_0" arrivalPos="138.68" arrivalSpeed="12.47" duration="2366.00" routeLength="7923.97" waitingTime="355.00" waitingCount="18" stopTime="1278.00" timeLoss="503.35" rerouteNo="1" devices="vehroute_128 tripinfo_128 emissions_128" vType="vecType" speedFactor="1.12" vaporized="">
        <emissions CO_abs="92030.357299" CO2_abs="3126270.830449" HC_abs="491.411936" PMx_abs="60.453617" NOx_abs="1301.275443" fuel_abs="997159.496329" electricity_abs="0"/>
    </tripinfo>
    <tripinfo id="28" depart="18009.00" departLane="90077241_0" departPos="5.10" departSpeed="0.00" departDelay="9.00" arrival="20717.00" arrivalLane="90077241_0" arrivalPos="3225.35" arrivalSpeed="32.77" duration="2708.00" routeLength="11899.33" waitingTime="65.00" waitingCount="2" stopTime="2157.00" timeLoss="123.19" rerouteNo="2" devices="vehroute_28 tripinfo_28 emissions_28" vType="vecType" speedFactor="1.13" vaporized="">
        <emissions CO_abs="61501.415903" CO2_abs="3141426.779052" HC_abs="358.763325" PMx_abs="72.630921" NOx_abs="1235.150795" fuel_abs="1001972.040092" electricity_abs="0"/>
    </tripinfo>
    <tripinfo id="160" depart="18540.00" departLane="90077241_0" departPos="5.10" departSpeed="0.00" departDelay="0.00" arrival="20771.00" arrivalLane="90077241_0" arrivalPos="3225.35" arrivalSpeed="31.14" duration="2231.00" routeLength="12875.87" waitingTime="108.00" waitingCount="4" stopTime="1522.00" timeLoss="187.50" rerouteNo="2" devices="vehroute_160 tripinfo_160 emissions_160" vType="vecType" speedFactor="1.10" vaporized="">
        <emissions CO_abs="67455.112771" CO2_abs="3388152.629491" HC_abs="390.750888" PMx_abs="74.321441" NOx_abs="1329.039127" fuel_abs="1080669.795501" electricity_abs="0"/>
    </tripinfo>
    <tripinfo id="58" depart="18063.00" departLane="90077241_0" departPos="5.10" departSpeed="0.00" departDelay="3.00" arrival="20955.00" arrivalLane="90077241_0" arrivalPos="3225.35" arrivalSpeed="29.00" duration="2892.00" routeLength="15253.99" waitingTime="302.00" waitingCount="9" stopTime="1749.00" timeLoss="397.66" rerouteNo="2" devices="vehroute_58 tripinfo_58 emissions_58" vType="vecType" speedFactor="1.02" vaporized="">
        <emissions CO_abs="99333.496539" CO2_abs="4229372.013448" HC_abs="554.690476" PMx_abs="88.381569" NOx_abs="1675.000416" fuel_abs="1348992.527528" electricity_abs="0"/>
    </tripinfo>
    <tripinfo id="23" depart="18000.00" departLane="133733582#2_0" departPos="5.10" departSpeed="0.00" departDelay="0.00" arrival="21023.00" arrivalLane="133733582#2_0" arrivalPos="149.99" arrivalSpeed="9.94" duration="3023.00" routeLength="6926.78" waitingTime="259.00" waitingCount="10" stopTime="2029.00" timeLoss="359.65" rerouteNo="1" devices="vehroute_23 tripinfo_23 emissions_23" vType="vecType" speedFactor="0.89" vaporized="">
        <emissions CO_abs="71780.649181" CO2_abs="2440382.540437" HC_abs="382.901797" PMx_abs="43.598374" NOx_abs="999.343979" fuel_abs="778391.104842" electricity_abs="0"/>
    </tripinfo>
    <tripinfo id="188" depart="18660.00" departLane="111089307#0_0" departPos="5.10" departSpeed="0.00" departDelay="0.00" arrival="21030.00" arrivalLane="111089307#0_0" arrivalPos="135.96" arrivalSpeed="10.94" duration="2370.00" routeLength="4145.38" waitingTime="57.00" waitingCount="4" stopTime="1890.00" timeLoss="107.36" rerouteNo="1" devices="vehroute_188 tripinfo_188 emissions_188" vType="vecType" speedFactor="1.00" vaporized="">
        <emissions CO_abs="23023.724932" CO2_abs="1110360.946162" HC_abs="130.269043" PMx_abs="17.139582" NOx_abs="437.845457" fuel_abs="354160.758010" electricity_abs="0"/>
    </tripinfo>
    <tripinfo id="142" depart="18480.00" departLane="-27029204_0" departPos="5.10" departSpeed="0.00" departDelay="0.00" arrival="21035.00" arrivalLane="-27029204_0" arrivalPos="195.60" arrivalSpeed="9.47" duration="2555.00" routeLength="7406.90" waitingTime="266.00" waitingCount="8" stopTime="1536.00" timeLoss="370.13" rerouteNo="2" devices="vehroute_142 tripinfo_142 emissions_142" vType="vecType" speedFactor="0.94" vaporized="">
        <emissions CO_abs="73043.051100" CO2_abs="2567654.472229" HC_abs="391.926688" PMx_abs="45.795773" NOx_abs="1050.448160" fuel_abs="818984.780441" electricity_abs="0"/>
    </tripinfo>
    <tripinfo id="197" depart="18720.00" departLane="224384035#0_0" departPos="5.10" departSpeed="0.00" departDelay="0.00" arrival="21078.00" arrivalLane="224384035#0_0" arrivalPos="123.84" arrivalSpeed="10.42" duration="2358.00" routeLength="6380.04" waitingTime="282.00" waitingCount="10" stopTime="1403.00" timeLoss="384.56" rerouteNo="1" devices="vehroute_197 tripinfo_197 emissions_197" vType="vecType" speedFactor="0.99" vaporized="">
        <emissions CO_abs="71883.349403" CO2_abs="2387292.571767" HC_abs="382.366352" PMx_abs="43.041398" NOx_abs="983.376739" fuel_abs="761457.904507" electricity_abs="0"/>
    </tripinfo>
    <tripinfo id="59" depart="18063.00" departLane="-27029200#2_0" departPos="5.10" departSpeed="0.00" departDelay="3.00" arrival="21100.00" arrivalLane="-27029200#2_0" arrivalPos="66.62" arrivalSpeed="10.59" duration="3037.00" routeLength="7133.74" waitingTime="219.00" waitingCount="8" stopTime="2124.00" timeLoss="310.92" rerouteNo="2" devices="vehroute_59 tripinfo_59 emissions_59" vType="vecType" speedFactor="0.97" vaporized="">
        <emissions CO_abs="61635.590567" CO2_abs="2334993.235481" HC_abs="334.514223" PMx_abs="40.781031" NOx_abs="945.383971" fuel_abs="744772.866545" electricity_abs="0"/>
    </tripinfo>
    <tripinfo id="55" depart="18060.00" departLane="-204967525_0" departPos="5.10" departSpeed="0.00" departDelay="0.00" arrival="21180.00" arrivalLane="-204967525_1" arrivalPos="146.26" arrivalSpeed="10.47" duration="3120.00" routeLength="7470.98" waitingTime="309.00" waitingCount="16" stopTime="2009.00" timeLoss="439.74" rerouteNo="1" devices="vehroute_55 tripinfo_55 emissions_55" vType="vecType" speedFactor="1.00" vaporized="">
        <emissions CO_abs="81691.287307" CO2_abs="2719070.455762" HC_abs="434.820283" PMx_abs="48.963524" NOx_abs="1120.713859" fuel_abs="867282.634687" electricity_abs="0"/>
    </tripinfo>
    <tripinfo id="214" depart="18972.00" departLane="90077241_0" departPos="5.10" departSpeed="0.00" departDelay="12.00" arrival="21182.00" arrivalLane="90077241_0" arrivalPos="3225.35" arrivalSpeed="28.39" duration="2210.00" routeLength="13046.53" waitingTime="170.00" waitingCount="6" stopTime="1347.00" timeLoss="257.49" rerouteNo="1" devices="vehroute_214 tripinfo_214 emissions_214" vType="vecType" speedFactor="1.01" vaporized="">
        <emissions CO_abs="72031.488305" CO2_abs="3447135.553326" HC_abs="411.497331" PMx_abs="72.180526" NOx_abs="1355.210030" fuel_abs="1099486.784757" electricity_abs="0"/>
    </tripinfo>
    <tripinfo id="150" depart="18480.00" departLane="144489137#0_0" departPos="5.10" departSpeed="0.00" departDelay="0.00" arrival="21219.00" arrivalLane="144489137#0_0" arrivalPos="135.49" arrivalSpeed="10.51" duration="2739.00" routeLength="6188.13" waitingTime="331.00" waitingCount="13" stopTime="1764.00" timeLoss="440.20" rerouteNo="2" devices="vehroute_150 tripinfo_150 emissions_150" vType="vecType" speedFactor="1.03" vaporized="">
        <emissions CO_abs="78262.705698" CO2_abs="2431412.936634" HC_abs="412.423874" PMx_abs="44.608862" NOx_abs="1005.034773" fuel_abs="775533.126480" electricity_abs="0"/>
    </tripinfo>
    <tripinfo id="226" depart="19020.00" departLane="31129765_0" departPos="5.10" departSpeed="0.00" departDelay="0.00" arrival="21224.00" arrivalLane="31129765_0" arrivalPos="639.51" arrivalSpeed="21.04" duration="2204.00" routeLength="7718.23" waitingTime="276.00" waitingCount="10" stopTime="1313.00" timeLoss="374.03" rerouteNo="2" devices="vehroute_226 tripinfo_226 emissions_226" vType="vecType" speedFactor="0.98" vaporized="">
        <emissions CO_abs="74180.615872" CO2_abs="2689418.381177" HC_abs="400.424013" PMx_abs="51.939836" NOx_abs="1097.356355" fuel_abs="857818.844175" electricity_abs="0"/>
    </tripinfo>
    <tripinfo id="93" depart="18120.00" departLane="-254758121#2_0" departPos="5.10" departSpeed="0.00" departDelay="0.00" arrival="21273.00" arrivalLane="-254758121#2_0" arrivalPos="99.35" arrivalSpeed="9.57" duration="3153.00" routeLength="3841.81" waitingTime="83.00" waitingCount="3" stopTime="2643.00" timeLoss="136.71" rerouteNo="2" devices="vehroute_93 tripinfo_93 emissions_93" vType="vecType" speedFactor="0.92" vaporized="">
        <emissions CO_abs="29495.225160" CO2_abs="1200267.408863" HC_abs="161.876705" PMx_abs="19.776807" NOx_abs="484.157295" fuel_abs="382838.591530" electricity_abs="0"/>
    </tripinfo>
    <tripinfo id="76" depart="18120.00" departLane="225806031#0_0" departPos="5.10" departSpeed="0.00" departDelay="0.00" arrival="21276.00" arrivalLane="225806031#0_0" arrivalPos="142.16" arrivalSpeed="11.02" duration="3156.00" routeLength="3181.76" waitingTime="96.00" waitingCount="3" stopTime="2740.00" timeLoss="141.77" rerouteNo="1" devices="vehroute_76 tripinfo_76 emissions_76" vType="vecType" speedFactor="1.03" vaporized="">
        <emissions CO_abs="27739.606107" CO2_abs="1080693.296819" HC_abs="151.195157" PMx_abs="18.536094" NOx_abs="438.002885" fuel_abs="344699.248962" electricity_abs="0"/>
    </tripinfo>
    <tripinfo id="47" depart="18060.00" departLane="90077241_0" departPos="5.10" departSpeed="0.00" departDelay="0.00" arrival="21318.00" arrivalLane="90077241_0" arrivalPos="3225.35" arrivalSpeed="25.45" duration="3258.00" routeLength="11565.45" waitingTime="17.00" waitingCount="3" stopTime="2658.00" timeLoss="65.00" rerouteNo="1" devices="vehroute_47 tripinfo_47 emissions_47" vType="vecType" speedFactor="0.90" vaporized="">
        <emissions CO_abs="31346.160804" CO2_abs="2441600.643938" HC_abs="200.150580" PMx_abs="46.533443" NOx_abs="915.512106" fuel_abs="778758.071984" electricity_abs="0"/>
    </tripinfo>
    <tripinfo id="10" depart="18000.00" departLane="90077241_0" departPos="5.10" departSpeed="0.00" departDelay="0.00" arrival="21336.00" arrivalLane="90077241_0" arrivalPos="3225.35" arrivalSpeed="31.41" duration="3336.00" routeLength="11810.95" waitingTime="140.00" waitingCount="5" stopTime="2667.00" timeLoss="210.70" rerouteNo="1" devices="vehroute_10 tripinfo_10 emissions_10" vType="vecType" speedFactor="1.09" vaporized="">
        <emissions CO_abs="70261.753875" CO2_abs="3236238.679963" HC_abs="400.102173" PMx_abs="72.513154" NOx_abs="1271.613598" fuel_abs="1032218.630554" electricity_abs="0"/>
    </tripinfo>
    <tripinfo id="80" depart="18120.00" departLane="-23883760_0" departPos="5.10" departSpeed="0.00" departDelay="0.00" arrival="21338.00" arrivalLane="-23883760_0" arrivalPos="242.29" arrivalSpeed="11.12" duration="3218.00" routeLength="7229.13" waitingTime="329.00" waitingCount="15" stopTime="2139.00" timeLoss="452.76" rerouteNo="2" devices="vehroute_80 tripinfo_80 emissions_80" vType="vecType" speedFactor="1.03" vaporized="">
        <emissions CO_abs="80965.005498" CO2_abs="2642844.675490" HC_abs="429.646501" PMx_abs="47.282704" NOx_abs="1084.906699" fuel_abs="842970.948957" electricity_abs="0"/>
    </tripinfo>
    <tripinfo id="138" depart="18420.00" departLane="-27570786#2_0" departPos="5.10" departSpeed="0.00" departDelay="0.00" arrival="21362.00" arrivalLane="-27570786#2_0" arrivalPos="88.50" arrivalSpeed="10.31" duration="2942.00" routeLength="7542.50" waitingTime="432.00" waitingCount="18" stopTime="1696.00" timeLoss="573.34" rerouteNo="1" devices="vehroute_138 tripinfo_138 emissions_138" vType="vecType" speedFactor="1.00" vaporized="">
        <emissions CO_abs="103245.750332" CO2_abs="3114759.758382" HC_abs="542.178019" PMx_abs="58.044459" NOx_abs="1295.830172" fuel_abs="993496.826422" electricity_abs="0"/>
    </tripinfo>
    <tripinfo id="15" depart="18000.00" departLane="-24310636#2_0" departPos="5.10" departSpeed="0.00" departDelay="0.00" arrival="21363.00" arrivalLane="-24310636#2_1" arrivalPos="108.36" arrivalSpeed="10.13" duration="3363.00" routeLength="6010.81" waitingTime="148.00" waitingCount="8" stopTime="2605.00" timeLoss="237.68" rerouteNo="1" devices="vehroute_15 tripinfo_15 emissions_15" vType="vecType" speedFactor="0.93" vaporized="">
        <emissions CO_abs="48726.110153" CO2_abs="1905080.959607" HC_abs="265.446758" PMx_abs="33.209778" NOx_abs="770.953213" fuel_abs="607646.315816" electricity_abs="0"/>
    </tripinfo>
    <tripinfo id="68" depart="18060.00" departLane="27167762_0" departPos="5.10" departSpeed="0.00" departDelay="0.00" arrival="21409.00" arrivalLane="27167762_0" arrivalPos="139.02" arrivalSpeed="22.87" duration="3349.00" routeLength="5366.29" waitingTime="155.00" waitingCount="7" stopTime="2756.00" timeLoss="241.83" rerouteNo="1" devices="vehroute_68 tripinfo_68 emissions_68" vType="vecType" speedFactor="1.04" vaporized="">
        <emissions CO_abs="49666.835760" CO2_abs="1949827.224191" HC_abs="272.147924" PMx_abs="38.491133" NOx_abs="805.520097" fuel_abs="621914.580360" electricity_abs="0"/>
    </tripinfo>
    <tripinfo id="156" depart="18486.00" departLane="-35977367#2_0" departPos="5.10" departSpeed="0.00" departDelay="6.00" arrival="21428.00" arrivalLane="-35977367#2_0" arrivalPos="431.73" arrivalSpeed="10.13" duration="2942.00" routeLength="5429.40" waitingTime="89.00" waitingCount="5" stopTime="2272.00" timeLoss="169.53" rerouteNo="1" devices="vehroute_156 tripinfo_156 emissions_156" vType="vecType" speedFactor="0.97" vaporized="">
        <emissions CO_abs="36185.558836" CO2_abs="1634868.768649" HC_abs="202.424887" PMx_abs="26.765905" NOx_abs="657.067309" fuel_abs="521457.288983" electricity_abs="0"/>
    </tripinfo>
    <tripinfo id="5" depart="18000.00" departLane="-23883760_0" departPos="5.10" departSpeed="0.00" departDelay="0.00" arrival="21454.00" arrivalLane="-23883760_0" arrivalPos="242.29" arrivalSpeed="8.39" duration="3454.00" routeLength="5984.65" waitingTime="245.00" waitingCount="9" stopTime="2469.00" timeLoss="340.48" rerouteNo="1" devices="vehroute_5 tripinfo_5 emissions_5" vType="vecType" speedFactor="0.83" vaporized="">
        <emissions CO_abs="68855.097563" CO2_abs="2159814.996769" HC_abs="363.030685" PMx_abs="37.707130" NOx_abs="887.726663" fuel_abs="688904.317322" electricity_abs="0"/>
    </tripinfo>
    <tripinfo id="275" depart="19500.00" departLane="-27029200#2_0" departPos="5.10" departSpeed="0.00" departDelay="0.00" arrival="21455.00" arrivalLane="-27029200#2_0" arrivalPos="66.62" arrivalSpeed="11.25" duration="1955.00" routeLength="4087.87" waitingTime="71.00" waitingCount="7" stopTime="1458.00" timeLoss="142.70" rerouteNo="1" devices="vehroute_275 tripinfo_275 emissions_275" vType="vecType" speedFactor="1.03" vaporized="">
        <emissions CO_abs="28457.321469" CO2_abs="1273803.047849" HC_abs="158.959809" PMx_abs="21.294159" NOx_abs="513.358646" fuel_abs="406291.653212" electricity_abs="0"/>
    </tripinfo>
    <tripinfo id="276" depart="19500.00" departLane="-27167281#1_0" departPos="5.10" departSpeed="0.00" departDelay="0.00" arrival="21498.00" arrivalLane="-27167281#1_0" arrivalPos="192.19" arrivalSpeed="10.51" duration="1998.00" routeLength="5356.74" waitingTime="452.00" waitingCount="14" stopTime="925.00" timeLoss="563.62" rerouteNo="1" devices="vehroute_276 tripinfo_276 emissions_276" vType="vecType" speedFactor="0.94" vaporized="">
        <emissions CO_abs="101300.568226" CO2_abs="2688134.469162" HC_abs="523.564631" PMx_abs="52.698176" NOx_abs="1138.364537" fuel_abs="857423.150753" electricity_abs="0"/>
    </tripinfo>
    <tripinfo id="157" depart="18480.00" departLane="-160313263#1_0" departPos="5.10" departSpeed="0.00" departDelay="0.00" arrival="21515.00" arrivalLane="-160313263#1_0" arrivalPos="124.42" arrivalSpeed="10.19" duration="3035.00" routeLength="7077.57" waitingTime="568.00" waitingCount="16" stopTime="1684.00" timeLoss="698.26" rerouteNo="2" devices="vehroute_157 tripinfo_157 emissions_157" vType="vecType" speedFactor="0.97" vaporized="">
        <emissions CO_abs="123437.084581" CO2_abs="3308903.130327" HC_abs="638.571759" PMx_abs="63.601313" NOx_abs="1390.694893" fuel_abs="1055428.002313" electricity_abs="0"/>
    </tripinfo>
    <tripinfo id="162" depart="18543.00" departLane="90077241_0" departPos="5.10" departSpeed="0.00" departDelay="3.00" arrival="21537.00" arrivalLane="90077241_0" arrivalPos="3225.35" arrivalSpeed="27.84" duration="2994.00" routeLength="11625.26" waitingTime="84.00" waitingCount="4" stopTime="2385.00" timeLoss="148.08" rerouteNo="1" devices="vehroute_162 tripinfo_162 emissions_162" vType="vecType" speedFactor="1.00" vaporized="">
        <emissions CO_abs="51105.203047" CO2_abs="2843533.797263" HC_abs="302.499676" PMx_abs="60.448269" NOx_abs="1097.075249" fuel_abs="906959.770774" electricity_abs="0"/>
    </tripinfo>
    <tripinfo id="14" depart="18000.00" departLane="8916767#0_0" departPos="5.10" departSpeed="0.00" departDelay="0.00" arrival="21538.00" arrivalLane="8916767#0_0" arrivalPos="129.66" arrivalSpeed="10.84" duration="3538.00" routeLength="7452.94" waitingTime="320.00" waitingCount="14" stopTime="2421.00" timeLoss="443.53" rerouteNo="1" devices="vehroute_14 tripinfo_14 emissions_14" vType="vecType" speedFactor="0.99" vaporized="">
        <emissions CO_abs="82720.134421" CO2_abs="2773606.156784" HC_abs="440.702586" PMx_abs="49.572217" NOx_abs="1140.499276" fuel_abs="884677.577942" electricity_abs="0"/>
    </tripinfo>
    <tripinfo id="244" depart="19443.00" departLane="225806031#0_0" departPos="5.10" departSpeed="0.00" departDelay="3.00" arrival="21592.00" arrivalLane="225806031#0_0" arrivalPos="142.16" arrivalSpeed="12.29" duration="2149.00" routeLength="6716.89" waitingTime="448.00" waitingCount="18" stopTime="1064.00" timeLoss="582.21" rerouteNo="2" devices="vehroute_244 tripinfo_244 emissions_244" vType="vecType" speedFactor="1.19" vaporized="">
        <emissions CO_abs="101932.285948" CO2_abs="3027278.388008" HC_abs="532.908822" PMx_abs="59.700877" NOx_abs="1273.883583" fuel_abs="965590.891347" electricity_abs="0"/>
    </tripinfo>
    <tripinfo id="129" depart="18300.00" departLane="90077241_0" departPos="5.10" departSpeed="0.00" departDelay="0.00" arrival="21597.00" arrivalLane="90077241_0" arrivalPos="3225.35" arrivalSpeed="28.91" duration="3297.00" routeLength="12197.50" waitingTime="152.00" waitingCount="4" stopTime="2578.00" timeLoss="211.97" rerouteNo="2" devices="vehroute_129 tripinfo_129 emissions_129" vType="vecType" speedFactor="1.01" vaporized="">
        <emissions CO_abs="63353.268024" CO2_abs="3149858.308247" HC_abs="365.116464" PMx_abs="66.955381" NOx_abs="1227.671536" fuel_abs="1004666.827584" electricity_abs="0"/>
    </tripinfo>
    <tripinfo id="178" depart="18600.00" departLane="gneE21_0" departPos="5.10" departSpeed="0.00" departDelay="0.00" arrival="21617.00" arrivalLane="gneE21_0" arrivalPos="70.65" arrivalSpeed="15.32" duration="3017.00" routeLength="9934.43" waitingTime="308.00" waitingCount="12" stopTime="1853.00" timeLoss="443.68" rerouteNo="1" devices="vehroute_178 tripinfo_178 emissions_178" vType="vecType" speedFactor="1.10" vaporized="">